1071	0	*	1
1136	1	*	1
2208	2	*	1
1521	3	*	1
2462	2	0.0/4418aa/24.3%	1
1718	4	*	1
1731	5	*	1
1958	2	2.58e-07/203aa/1.48%	1
968	2	0.0/3068aa/26.29%	1
2106	6	*	1
1945	7	*	1
927	8	*	1
941	9	*	1
1773	10	*	1
2100	11	*	1
937	10	0.0/1025:1315:54aa/34.19%	1
1049	12	*	1
2039	13	*	1
2733	2	1.79e-20/139aa/2.07%	1
1585	14	*	1
1768	15	*	1
1147	16	*	1
1107	17	*	1
1737	5	2.41e-45/151:221aa/5.75%	1
2266	18	*	1
4620	19	*	1
1168	20	*	1
820	21	*	1
1329	5	1.34e-18/136aa/1.9%	1
2468	18	3.19e-120/956aa/12.74%	1
2587	22	*	1
1117	23	*	1
1967	24	*	1
1219	25	*	1
559	26	*	1
2738	2	1.14e-34/927:578aa/16.96%	1
1066	27	*	1
973	28	*	1
1096	29	*	1
2329	30	*	1
415	14	3.41e-52/307:327:288aa/13.58%	1
1949	31	*	1
2563	32	*	1
819	33	*	1
56	34	*	1
1869	35	*	1
2518	14	1.23e-11/102aa/1.55%	1
1779	36	*	1
623	37	*	1
2219	38	*	1
2713	39	*	1
1926	40	*	1
997	41	*	1
1654	42	*	1
917	14	1.81e-15/98aa/1.86%	1
1156	43	*	1
2734	8	2.08e-49/311:162aa/9.68%	1
1176	44	*	1
29	40	0.0/966:861aa/34.58%	1
299	40	0.0/965:844aa/35.5%	1
1726	40	0.0/957:854aa/34.6%	1
523	40	0.0/963:627aa/30.75%	1
2790	45	*	1
1460	46	*	1
1113	47	*	1
979	48	*	1
1060	49	*	1
1241	13	9.65e-08/94aa/1.52%	1
2212	50	*	1
1817	51	*	1
1957	52	*	1
1306	53	*	1
492	54	*	1
1862	55	*	1
712	56	*	1
2431	57	*	1
2813	58	*	1
2571	59	*	1
2551	60	*	1
806	61	*	1
1947	62	*	1
2141	61	0.0/1648aa/70.32%	1
1805	63	*	1
2339	64	*	1
956	65	*	1
3634	66	*	1
185	67	*	1
1665	45	2.05e-98/642:105:181:155aa/22.59%	1
2857	52	8.06e-85/985:485aa/25.68%	1
1927	68	*	1
742	69	*	1
135	69	0.0/1601aa/56.39%	1
2680	70	*	1
733	71	*	1
2699	72	*	1
947	73	*	1
2391	74	*	1
1626	49	1.43e-14/204aa/3.77%	1
1248	75	*	1
1069	76	*	1
1378	77	*	1
962	78	*	1
3837	34	5.11e-07/423aa/6.37%	1
1910	79	*	1
1866	80	*	1
1442	30	3.85e-20/345aa/5.3%	1
3967	81	*	1
1359	24	2.59e-24/249aa/4.85%	1
433	82	*	1
896	83	*	1
1313	84	*	1
2484	85	*	1
2522	2	6.59e-54/1089aa/18.24%	1
825	86	*	1
1062	40	1.73e-46/804aa/12.99%	1
1586	87	*	1
1618	35	7.27e-21/415aa/7.05%	1
2453	88	*	1
1007	89	*	1
3409	90	*	1
3583	91	*	1
1224	92	*	1
1712	93	*	1
1620	94	*	1
236	95	*	1
24	96	*	1
1006	97	*	1
1236	95	1.13e-133/1222aa/25.05%	1
2493	5	6.01e-17/126aa/3.08%	1
1076	17	1.35e-40/283aa/7.01%	1
4063	10	6.28e-09/480aa/7.99%	1
1669	98	*	1
1278	99	*	1
1410	100	*	1
4064	101	*	1
66	83	6.42e-30/865aa/14.68%	1
3694	45	2.07e-41/841aa/14.92%	1
2620	102	*	1
3342	101	0.0/1254aa/86.47%	1
2197	103	*	1
1549	30	1.13e-54/1037aa/17.26%	1
1015	104	*	1
1863	105	*	1
1890	106	*	1
654	107	*	1
4065	101	0.0/1250aa/89.76%	1
964	108	*	1
1763	109	*	1
2997	110	*	1
1901	111	*	1
1038	112	*	1
2807	113	*	1
1080	102	1.84e-09/141aa/3.33%	1
1332	114	*	1
1627	43	1.83e-30/400aa/8%	1
1146	115	*	1
1632	83	0.0/1223aa/39.22%	1
3695	116	*	1
987	117	*	1
1082	118	*	1
1496	119	*	1
1791	120	*	1
4026	121	*	1
1160	122	*	1
2629	123	*	1
510	17	1.42e-41/282aa/7.25%	1
1587	124	*	1
4283	125	*	1
242	126	*	1
457	127	*	1
1104	128	*	1
2779	30	6.57e-76/1124aa/21.73%	1
2864	128	0.0/615:586aa/43.93%	1
1653	129	*	1
3329	130	*	1
439	2	2.05e-11/194aa/4.24%	1
2984	113	0.0/1301aa/36.13%	1
1259	130	3.48e-60/525aa/12.76%	1
4669	131	*	1
2532	132	*	1
2556	30	2.46e-10/257aa/5.61%	1
1036	133	*	1
3877	134	*	1
2516	60	2.27e-16/97aa/3.08%	1
1584	135	*	1
1065	136	*	1
1292	17	1.87e-14/307aa/5.48%	1
1710	137	*	1
533	138	*	1
2962	139	*	1
3325	139	0.0/1248aa/78.81%	1
1033	140	*	1
1888	141	*	1
1831	142	*	1
1561	143	*	1
356	144	*	1
1948	145	*	1
986	146	*	1
224	17	2.65e-37/327aa/8.06%	1
1307	147	*	1
2600	148	*	1
1751	73	1.36e-08/74aa/2.29%	1
1732	149	*	1
1942	150	*	1
1208	151	*	1
1829	152	*	1
374	130	9.82e-123/641aa/19.25%	1
413	153	*	1
4020	154	*	1
1435	155	*	1
292	156	*	1
2273	157	*	1
1807	4	1.34e-26/508aa/11.51%	1
218	158	*	1
3257	159	*	1
1539	71	8.84e-12/211aa/4.83%	1
2728	116	1.36e-15/249aa/5.86%	1
318	29	2.25e-07/224aa/4.93%	1
3767	160	*	1
903	161	*	1
2435	56	6.66e-24/282:74aa/9.63%	1
2162	162	*	1
3866	163	*	1
2840	164	*	1
546	165	*	1
359	166	*	1
3402	167	*	1
1099	168	*	1
684	169	*	1
1664	116	3.73e-15/160:73aa/7.38%	1
184	170	*	1
5	171	*	1
1074	75	1.55e-46/240aa/8.76%	1
2048	172	*	1
1394	173	*	1
3378	174	*	1
3281	175	*	1
3453	176	*	1
159	177	*	1
1661	103	1.96e-56/914aa/20.8%	1
2512	178	*	1
2517	179	*	1
229	180	*	1
651	181	*	1
931	177	7.78e-162/747aa/26.4%	1
1636	71	1.46e-72/350aa/12.12%	1
2095	182	*	1
1051	183	*	1
203	184	*	1
889	71	5.37e-17/219aa/5.56%	1
2009	185	*	1
112	186	*	1
3762	187	*	1
2715	35	3.34e-75/747:184aa/25.73%	1
2605	188	*	1
60	189	*	1
1843	71	1.20e-41/305aa/8.73%	1
1547	190	*	1
1603	191	*	1
1770	192	*	1
383	193	*	1
1668	17	4.69e-36/283aa/8.57%	1
2337	194	*	1
3350	29	0.0/1004aa/37.74%	1
2150	195	*	1
2460	93	1.36e-08/94aa/2.53%	1
1047	196	*	1
2221	151	1.55e-24/321aa/7.78%	1
1287	197	*	1
1684	198	*	1
2523	8	1.71e-25/322:161aa/13.47%	1
4218	199	*	1
117	17	4.36e-24/363aa/8.78%	1
396	200	*	1
901	201	*	1
1257	102	7.78e-10/88aa/3.03%	1
152	202	*	1
1554	203	*	1
4588	204	*	1
1362	205	*	1
4054	206	*	1
1300	207	*	1
1849	208	*	1
1803	209	*	1
2073	210	*	1
3632	204	9.72e-90/1001aa/27.21%	1
1577	211	*	1
1685	71	7.24e-20/220aa/6.44%	1
4502	81	1.69e-23/501aa/13.37%	1
2659	212	*	1
1616	213	*	1
3587	204	0.0/1001aa/63.35%	1
2647	214	*	1
1125	215	*	1
1266	216	*	1
4006	204	0.0/1001aa/74.95%	1
3817	200	1.00e-25/442aa/11.82%	1
2904	217	*	1
1	218	*	1
1974	194	6.03e-18/85aa/4.47%	1
2657	8	4.19e-74/310aa/13.24%	1
1503	219	*	1
1643	220	*	1
1874	221	*	1
1507	222	*	1
1801	223	*	1
2810	210	1.08e-99/1063aa/31.17%	1
4007	224	*	1
2249	225	*	1
2593	226	*	1
27	227	*	1
948	228	*	1
731	130	4.34e-113/641aa/22.42%	1
2628	229	*	1
136	70	5.01e-08/374aa/9.13%	1
1314	230	*	1
860	231	*	1
1001	232	*	1
369	233	*	1
1103	234	*	1
2822	235	*	1
2140	236	*	1
847	237	*	1
2814	103	2.24e-46/864aa/21.7%	1
1574	238	*	1
2119	239	*	1
1023	240	*	1
2196	180	2.65e-66/286:177:99aa/29.04%	1
1550	241	*	1
2646	242	*	1
3475	243	*	1
591	244	*	1
2409	245	*	1
2851	246	*	1
502	247	*	1
158	248	*	1
1744	249	*	1
307	250	*	1
1902	251	*	1
1042	252	*	1
1828	253	*	1
2461	93	4.03e-08/88aa/2.45%	1
1988	254	*	1
697	255	*	1
1263	88	6.51e-13/429aa/9.74%	1
1682	256	*	1
1856	93	6.46e-09/158aa/4.51%	1
2682	151	7.97e-27/314aa/7.79%	1
188	213	1.06e-27/279aa/8.41%	1
1124	257	*	1
1789	258	*	1
1968	259	*	1
343	260	*	1
478	261	*	1
1070	262	*	1
2661	263	*	1
3101	81	3.78e-12/307aa/7.74%	1
3107	264	*	1
1252	265	*	1
719	266	*	1
2745	216	1.67e-08/398aa/9.23%	1
1348	267	*	1
9	268	*	1
1011	269	*	1
2200	270	*	1
588	83	1.19e-20/373aa/9.67%	1
910	189	0.0/716:189aa/47.13%	1
1367	271	*	1
1800	272	*	1
1852	273	*	1
3539	274	*	1
3819	275	*	1
2480	93	4.18e-08/97aa/2.72%	1
1416	276	*	1
471	277	*	1
1765	278	*	1
1531	279	*	1
4605	280	*	1
965	12	1.03e-18/190aa/6.63%	1
3788	154	1.33e-25/115:248aa/14.85%	1
1030	281	*	1
2638	282	*	1
2592	102	8.92e-14/104aa/4.46%	1
1462	283	*	1
4337	284	*	1
1865	75	5.82e-18/267aa/7.35%	1
4650	280	3.63e-35/821aa/18.97%	1
730	1	5.51e-09/59aa/2.56%	1
696	285	*	1
4594	286	*	1
703	17	8.69e-21/278aa/8.72%	1
1127	287	*	1
4570	288	*	1
688	289	*	1
1242	290	*	1
1339	291	*	1
1276	18	1.10e-78/498aa/18.18%	1
1596	17	1.66e-36/241aa/9.42%	1
11	292	*	1
692	293	*	1
1980	294	*	1
2021	295	*	1
1794	286	0.0/876aa/35.47%	1
4075	154	1.07e-22/236:115aa/12.2%	1
2358	189	4.65e-18/271:155aa/12.43%	1
2395	157	5.28e-49/600aa/17.01%	1
2543	296	*	1
1018	71	2.76e-14/234aa/7.42%	1
2069	297	*	1
2285	122	7.47e-20/186aa/6.12%	1
3487	154	3.27e-28/473aa/14.44%	1
1368	298	*	1
2014	299	*	1
3070	128	2.87e-13/210aa/5.92%	1
1453	300	*	1
314	71	7.57e-64/449aa/16.62%	1
1112	255	0.0/853aa/48.45%	1
1286	233	4.58e-18/190aa/6.6%	1
2936	301	*	1
1131	260	3.17e-10/416aa/9.94%	1
2681	302	*	1
2041	93	3.27e-08/100aa/2.98%	1
3613	303	*	1
4266	304	*	1
18	5	4.42e-13/138aa/5.01%	1
2559	259	3.73e-36/475aa/13.91%	1
3298	210	2.08e-77/849aa/26.72%	1
381	120	0.0/541aa/31.32%	1
2020	305	*	1
3093	154	1.03e-08/237aa/6.37%	1
19	246	9.25e-50/663:168aa/26.2%	1
700	306	*	1
2827	8	9.90e-45/336:240aa/22.86%	1
3754	307	*	1
3929	308	*	1
2890	309	*	1
4101	310	*	1
4342	311	*	1
2700	312	*	1
812	313	*	1
235	314	*	1
245	308	0.0/895aa/53.1%	1
2170	315	*	1
3467	316	*	1
899	317	*	1
1601	318	*	1
2596	319	*	1
3946	320	*	1
1261	321	*	1
1318	315	1.78e-26/287aa/9.37%	1
2159	322	*	1
1715	323	*	1
1925	324	*	1
23	233	2.95e-18/163aa/5.89%	1
31	325	*	1
3884	326	*	1
2553	327	*	1
2839	93	6.32e-10/96aa/3.4%	1
2110	328	*	1
1408	329	*	1
2090	194	1.47e-14/188:73aa/10.02%	1
4471	326	1.74e-73/907aa/27.22%	1
1128	73	3.62e-07/81aa/3.19%	1
1990	330	*	1
4276	331	*	1
4543	332	*	1
2845	333	*	1
3508	82	2.04e-13/167aa/6.17%	1
1162	334	*	1
389	328	0.0/867aa/49.19%	1
1139	335	*	1
1373	336	*	1
1402	337	*	1
3802	338	*	1
1253	259	2.64e-08/86aa/4.13%	1
3797	339	*	1
933	102	1.03e-08/141aa/4.71%	1
1058	149	9.47e-25/257aa/8.77%	1
3705	340	*	1
228	341	*	1
2957	342	*	1
3642	326	1.09e-66/869aa/27.74%	1
3860	333	2.91e-29/508aa/15.14%	1
938	343	*	1
3129	81	0.0/901aa/43.45%	1
3117	280	3.57e-27/398aa/12.2%	1
1473	344	*	1
1225	345	*	1
1495	346	*	1
1702	347	*	1
4448	348	*	1
157	71	2.15e-17/231aa/7.59%	1
1878	349	*	1
1154	120	7.97e-08/122aa/3.27%	1
515	14	2.37e-12/93aa/4.45%	1
2080	350	*	1
4525	157	3.54e-64/587aa/21.92%	1
217	351	*	1
1474	352	*	1
4082	353	*	1
678	213	9.97e-170/281:206aa/33.01%	1
1209	354	*	1
1272	83	5.90e-10/402aa/12.6%	1
347	312	1.30e-107/900aa/31.72%	1
4188	139	2.11e-08/73aa/2.71%	1
1323	355	*	1
1934	219	1.48e-18/208aa/8.51%	1
1365	356	*	1
1911	357	*	1
2338	351	0.0/852aa/81.04%	1
2694	358	*	1
2858	359	*	1
4654	360	*	1
1608	361	*	1
42	362	*	1
409	49	4.42e-26/193aa/8.12%	1
867	208	7.94e-44/259aa/11.7%	1
1647	363	*	1
2206	71	1.85e-19/157:175aa/13.87%	1
1870	364	*	1
2066	2	1.21e-27/175aa/6.96%	1
3538	365	*	1
2223	213	3.89e-23/275aa/9.01%	1
3901	365	0.0/834aa/45.24%	1
569	361	2.49e-119/871aa/31.92%	1
1195	93	3.63e-08/154aa/4.7%	1
2126	291	0.0/573:133aa/64.85%	1
3989	224	3.48e-20/377aa/10.86%	1
391	180	1.19e-22/112aa/5.93%	1
1778	366	*	1
4436	326	7.98e-50/778aa/23.24%	1
322	367	*	1
869	368	*	1
133	369	*	1
1740	370	*	1
1814	371	*	1
1052	372	*	1
595	373	*	1
26	17	5.07e-07/263aa/7.92%	1
4621	374	*	1
1319	375	*	1
1854	315	1.33e-91/460aa/22.46%	1
1398	376	*	1
1720	377	*	1
466	194	2.03e-08/80aa/3.67%	1
88	151	1.21e-24/307aa/9.81%	1
3275	326	3.60e-149/850aa/35.58%	1
4377	358	0.0/809aa/48.83%	1
572	378	*	1
1221	379	*	1
1520	102	1.41e-11/155aa/6.51%	1
4492	224	7.75e-16/332aa/10.68%	1
463	380	*	1
1046	93	2.34e-09/108aa/3.81%	1
3710	381	*	1
2376	382	*	1
811	367	1.02e-43/381aa/16.29%	1
161	10	1.79e-07/113aa/4.57%	1
810	367	6.72e-43/381aa/16.06%	1
3126	130	8.63e-67/441aa/19.15%	1
1576	194	2.08e-13/89aa/4.95%	1
3160	139	1.45e-17/324:109aa/15.09%	1
2887	224	9.79e-14/315aa/9.66%	1
4137	383	*	1
1056	151	7.61e-17/297aa/9.56%	1
1844	71	1.24e-19/273aa/8.94%	1
2198	384	*	1
4549	82	5.05e-28/505aa/16.54%	1
4579	385	*	1
632	71	9.57e-18/246aa/8.85%	1
1333	367	2.95e-42/387aa/15.6%	1
1189	386	*	1
334	387	*	1
1121	388	*	1
207	219	5.36e-27/537aa/18.17%	1
467	17	3.91e-49/295aa/14.17%	1
1567	389	*	1
3253	358	0.0/774aa/44.16%	1
1280	390	*	1
4484	391	*	1
2967	392	*	1
616	12	6.02e-18/182aa/7.17%	1
982	393	*	1
924	394	*	1
1821	0	3.96e-27/158:159aa/13.36%	1
1960	387	1.10e-25/592aa/16.51%	1
1301	395	*	1
187	382	0.0/776aa/67.63%	1
298	165	1.87e-07/206aa/6.59%	1
1921	396	*	1
2669	17	7.30e-52/286aa/13.61%	1
1152	397	*	1
61	71	3.59e-56/382aa/16.45%	1
929	398	*	1
1014	151	4.45e-25/293aa/9.82%	1
1297	8	3.46e-31/336:172aa/21.04%	1
2769	50	1.42e-14/104aa/4.71%	1
3252	399	*	1
3303	400	*	1
1633	401	*	1
2832	402	*	1
531	403	*	1
573	404	*	1
43	405	*	1
475	406	*	1
3803	407	*	1
221	408	*	1
1250	409	*	1
2232	410	*	1
2931	154	1.55e-35/660aa/22.62%	1
777	411	*	1
801	412	*	1
1846	413	*	1
2437	414	*	1
1883	415	*	1
1106	354	6.82e-173/770aa/36.3%	1
2205	416	*	1
4585	417	*	1
4152	418	*	1
278	71	2.07e-47/362aa/16.45%	1
1881	419	*	1
400	420	*	1
3635	421	*	1
1034	122	6.55e-09/291aa/8.58%	1
1848	422	*	1
1970	423	*	1
2174	424	*	1
2247	425	*	1
2578	426	*	1
377	416	4.00e-85/802aa/29.01%	1
2449	196	1.29e-07/154aa/4.83%	1
1251	30	4.32e-07/269aa/9.03%	1
4626	427	*	1
1172	362	0.0/762aa/98.16%	1
4514	428	*	1
1595	429	*	1
3394	382	9.31e-74/784aa/28.25%	1
198	430	*	1
1320	431	*	1
2190	5	6.76e-20/111aa/5.92%	1
3777	427	0.0/752aa/78.55%	1
3560	432	*	1
3895	224	2.42e-15/369aa/12.38%	1
1486	367	6.77e-15/242aa/10.02%	1
2370	433	*	1
3056	348	6.29e-75/401:325aa/39.18%	1
817	434	*	1
3365	435	*	1
974	436	*	1
2218	437	*	1
4256	438	*	1
2667	439	*	1
3624	440	*	1
3998	441	*	1
1739	367	0.0/761aa/56.64%	1
3628	82	4.54e-09/172aa/6.25%	1
2082	442	*	1
2413	50	9.87e-09/68aa/2.92%	1
2696	443	*	1
323	351	1.90e-18/464:163aa/22.66%	1
4470	444	*	1
126	267	5.27e-13/79aa/4.93%	1
1321	445	*	1
2278	71	3.97e-26/270aa/11.09%	1
1105	446	*	1
1637	447	*	1
3274	417	1.23e-09/325aa/10.17%	1
3577	448	*	1
2970	449	*	1
694	450	*	1
2034	367	0.0/751aa/56.51%	1
2820	451	*	1
4211	452	*	1
84	453	*	1
1579	102	1.10e-12/121aa/5.64%	1
4035	454	*	1
1569	455	*	1
1734	456	*	1
82	457	*	1
2111	458	*	1
1465	459	*	1
1234	49	1.74e-21/251aa/9.18%	1
1331	460	*	1
3135	461	*	1
1316	71	1.81e-59/403aa/18.53%	1
1885	17	1.13e-16/280aa/10.41%	1
2084	462	*	1
3721	463	*	1
2371	464	*	1
2757	465	*	1
1558	466	*	1
1694	321	7.75e-32/339aa/13.43%	1
2191	467	*	1
687	354	0.0/695aa/37.9%	1
360	468	*	1
1429	469	*	1
1983	315	5.04e-100/637aa/29.6%	1
21	130	9.28e-111/646aa/31.01%	1
247	470	*	1
565	471	*	1
1877	472	*	1
2724	473	*	1
3924	210	8.41e-09/285:71aa/13.25%	1
4120	167	2.21e-09/200aa/7.65%	1
4480	438	2.21e-106/678aa/29.09%	1
977	180	1.29e-22/227aa/9.71%	1
1093	474	*	1
2549	301	1.25e-48/407aa/17.09%	1
548	475	*	1
1357	128	1.27e-11/188aa/7.12%	1
2612	476	*	1
1431	17	1.06e-43/287aa/13.3%	1
3789	477	*	1
4055	448	1.12e-95/711aa/28.94%	1
624	37	3.26e-09/233aa/8.37%	1
393	478	*	1
3418	479	*	1
3441	480	*	1
447	481	*	1
674	482	*	1
902	483	*	1
1448	484	*	1
1650	485	*	1
934	486	*	1
1542	487	*	1
2439	194	1.56e-08/87aa/4.56%	1
3580	261	2.44e-10/275aa/9.26%	1
1984	488	*	1
455	489	*	1
1270	490	*	1
1642	491	*	1
1655	492	*	1
1912	71	8.57e-10/156aa/6.38%	1
2287	493	*	1
726	71	2.59e-26/255aa/11.38%	1
3607	480	0.0/709aa/50.69%	1
4427	494	*	1
2105	88	1.59e-09/379aa/11.12%	1
3295	131	1.05e-10/317aa/11.82%	1
195	383	1.87e-36/278aa/12.25%	1
350	495	*	1
701	496	*	1
1781	497	*	1
2740	473	2.24e-14/91aa/5.43%	1
1699	498	*	1
1889	499	*	1
2057	430	9.23e-111/417:215aa/42.39%	1
2778	500	*	1
4374	501	*	1
2324	502	*	1
3466	438	4.72e-160/740aa/37.2%	1
1130	71	1.75e-31/298aa/12.74%	1
2993	382	2.28e-37/646aa/21.14%	1
3104	503	*	1
3741	432	6.27e-44/349aa/15.12%	1
3598	438	2.96e-152/735aa/36.04%	1
1499	504	*	1
4613	418	4.17e-10/78aa/4.78%	1
357	505	*	1
720	387	4.01e-33/731aa/23.38%	1
2282	506	*	1
2463	507	*	1
2568	508	*	1
655	509	*	1
767	142	1.90e-09/158aa/5.5%	1
1204	510	*	1
2177	511	*	1
2849	512	*	1
1808	513	*	1
773	71	3.38e-60/354aa/18.52%	1
145	71	1.29e-12/209aa/7.5%	1
419	429	4.61e-56/546aa/23.65%	1
97	514	*	1
596	515	*	1
912	165	8.46e-23/262aa/10.78%	1
1346	71	6.11e-23/258aa/10.65%	1
1564	516	*	1
1816	517	*	1
1857	194	2.94e-26/339aa/13.21%	1
2952	351	3.59e-24/426:159aa/24.71%	1
608	430	9.91e-103/417:213aa/42.16%	1
1977	518	*	1
2595	323	3.88e-17/364aa/13.67%	1
3360	454	9.70e-123/680aa/31.05%	1
4247	519	*	1
321	455	9.09e-106/675aa/33.66%	1
1472	520	*	1
762	460	6.89e-65/735aa/26.57%	1
1309	521	*	1
2022	522	*	1
2311	71	2.43e-44/360aa/15.57%	1
3049	417	2.38e-19/644aa/22.42%	1
4603	523	*	1
309	83	4.76e-13/483aa/17.59%	1
316	522	7.61e-56/334aa/18.02%	1
1532	524	*	1
1436	525	*	1
3395	526	*	1
3623	526	0.0/696aa/64.18%	1
611	527	*	1
1457	528	*	1
2291	529	*	1
2007	530	*	1
2384	531	*	1
2665	214	9.65e-44/343aa/13.97%	1
4167	532	*	1
2411	533	*	1
2624	500	1.78e-90/385:44aa/34.63%	1
4535	167	6.95e-65/429aa/22.94%	1
994	534	*	1
1876	194	3.44e-11/85aa/5.49%	1
2153	535	*	1
442	536	*	1
1932	481	2.00e-115/703aa/33.47%	1
1335	537	*	1
4363	538	*	1
4458	539	*	1
823	540	*	1
1302	541	*	1
2312	128	4.08e-12/229aa/8.87%	1
2868	542	*	1
855	543	*	1
1611	411	3.12e-53/517aa/22.88%	1
921	520	2.87e-60/641aa/26.02%	1
1386	544	*	1
1693	545	*	1
1893	546	*	1
3702	494	1.21e-20/340aa/13.88%	1
1560	547	*	1
3845	548	*	1
96	71	5.14e-49/355aa/17.15%	1
3688	549	*	1
4486	101	0.0/565aa/61.73%	1
280	508	3.09e-16/134:392aa/17.76%	1
920	550	*	1
1760	291	2.93e-91/707aa/30.1%	1
1887	551	*	1
2064	552	*	1
4499	553	*	1
1004	554	*	1
2479	115	1.50e-53/532aa/24%	1
288	359	8.17e-98/608aa/31.71%	1
1159	555	*	1
1417	17	7.91e-23/290aa/11.35%	1
3399	556	*	1
3903	557	*	1
738	71	4.79e-14/198aa/7.09%	1
868	558	*	1
3494	559	*	1
2664	128	7.13e-07/206aa/7.7%	1
1141	98	0.0/386:180aa/82.34%	1
1355	560	*	1
836	561	*	1
4042	562	*	1
4581	494	1.14e-119/641aa/36.4%	1
15	512	0.0/622aa/55.05%	1
626	563	*	1
2743	564	*	1
3689	565	*	1
3731	566	*	1
1518	567	*	1
2687	71	5.50e-50/369aa/18.62%	1
4441	568	*	1
4279	569	*	1
1054	50	1.52e-09/97aa/4.33%	1
1061	570	*	1
1388	571	*	1
1534	24	8.78e-23/247aa/11.65%	1
2729	71	7.09e-16/212aa/7.62%	1
1830	572	*	1
3014	573	*	1
989	574	*	1
1097	575	*	1
1492	128	7.72e-14/231aa/9.6%	1
1666	574	1.59e-90/341aa/21.77%	1
2056	522	2.80e-31/296aa/13.21%	1
571	576	*	1
882	577	*	1
2165	578	*	1
53	579	*	1
599	580	*	1
1019	14	5.13e-11/57aa/3.46%	1
2777	581	*	1
2929	582	*	1
459	583	*	1
1111	584	*	1
1423	585	*	1
2877	448	4.84e-26/252aa/10.87%	1
2327	552	1.73e-43/346aa/16.49%	1
2366	586	*	1
3280	448	5.36e-29/439aa/17.54%	1
2613	587	*	1
3103	588	*	1
3530	589	*	1
857	506	1.85e-129/663aa/35.35%	1
1533	590	*	1
2154	487	8.63e-11/57aa/4.55%	1
4476	200	5.40e-42/446aa/21.85%	1
1961	591	*	1
4265	592	*	1
4297	365	1.21e-13/153aa/5.77%	1
645	411	1.77e-71/657aa/29.22%	1
2276	593	*	1
905	411	6.75e-73/675aa/28.81%	1
181	594	*	1
1695	595	*	1
3246	596	*	1
17	597	*	1
907	546	1.07e-18/482aa/15.29%	1
1529	598	*	1
4037	599	*	1
1188	600	*	1
1327	601	*	1
3746	602	*	1
4345	333	4.53e-24/625aa/22.51%	1
1477	603	*	1
1895	604	*	1
2151	605	*	1
2058	411	5.00e-74/656aa/29.64%	1
1304	4	3.84e-21/197aa/10.15%	1
1755	574	2.33e-114/541aa/31.69%	1
493	71	2.52e-21/250aa/10.32%	1
1656	219	3.43e-18/557aa/17.87%	1
1743	606	*	1
2107	607	*	1
2576	608	*	1
2754	194	5.72e-08/84aa/5.71%	1
3087	609	*	1
4447	610	*	1
4531	448	2.08e-12/236aa/8.2%	1
361	611	*	1
2477	102	5.75e-15/89aa/6.21%	1
3099	612	*	1
3551	367	3.46e-36/212aa/13.19%	1
4017	381	1.28e-44/651aa/26.39%	1
93	613	*	1
1289	614	*	1
4234	615	*	1
1166	616	*	1
1875	85	1.02e-22/393aa/17.13%	1
2679	411	5.28e-73/660aa/29.59%	1
4649	482	4.82e-152/631aa/37.38%	1
1298	411	1.54e-72/660aa/29.32%	1
1714	411	5.34e-73/660aa/29.32%	1
2346	411	1.54e-72/660aa/29.32%	1
2347	411	1.54e-72/660aa/29.32%	1
462	411	1.00e-77/659aa/30.31%	1
1115	71	3.40e-21/305aa/11.58%	1
3392	569	9.26e-36/306aa/16.74%	1
1233	617	*	1
3704	411	3.71e-53/508aa/22.88%	1
1879	4	7.20e-07/212aa/8.47%	1
1959	618	*	1
3907	128	6.11e-10/203aa/8.16%	1
4609	619	*	1
340	71	2.20e-31/350aa/15.4%	1
3333	620	*	1
1384	621	*	1
1822	5	2.97e-17/148aa/7.87%	1
2245	411	1.32e-72/655aa/29.92%	1
2655	57	2.14e-23/260aa/11.65%	1
3116	128	4.23e-11/217aa/8.5%	1
317	622	*	1
636	71	1.11e-08/250aa/9.93%	1
1823	618	1.62e-16/179aa/7.88%	1
1311	623	*	1
87	194	3.08e-10/81aa/5.54%	1
1470	624	*	1
1137	122	7.59e-09/309aa/11.42%	1
1784	625	*	1
2677	626	*	1
2909	627	*	1
3629	82	9.67e-26/591aa/22.38%	1
2420	628	*	1
3554	552	5.73e-47/396aa/19.87%	1
3807	629	*	1
1641	522	3.00e-20/205:117aa/16.24%	1
1914	43	2.06e-18/173aa/9.71%	1
1173	630	*	1
1463	631	*	1
121	574	2.94e-120/551aa/34.34%	1
282	71	4.44e-25/266aa/11.5%	1
1294	522	2.36e-32/287aa/14.69%	1
1337	632	*	1
2029	633	*	1
1254	49	2.99e-11/155aa/6.56%	1
1425	634	*	1
1504	635	*	1
1677	636	*	1
3874	637	*	1
3708	430	6.40e-119/675aa/39.9%	1
52	106	2.15e-10/67aa/4.65%	1
975	93	3.22e-129/576aa/39.64%	1
4522	638	*	1
424	412	4.24e-37/366:160aa/24.27%	1
1867	639	*	1
2104	640	*	1
1151	641	*	1
1232	642	*	1
1415	640	3.60e-162/549aa/48.79%	1
728	122	5.55e-08/320aa/11.29%	1
1482	643	*	1
3149	644	*	1
3286	582	9.14e-08/199aa/8.38%	1
679	194	1.02e-35/323aa/18.09%	1
736	645	*	1
2263	646	*	1
2317	552	1.26e-46/364aa/19.54%	1
2652	647	*	1
3195	648	*	1
91	649	*	1
2483	650	*	1
816	651	*	1
403	652	*	1
3203	411	4.56e-43/503aa/21.42%	1
3979	596	4.39e-47/569aa/27.59%	1
558	71	1.42e-24/319aa/13.82%	1
681	194	8.73e-16/76aa/6.99%	1
1622	625	0.0/592aa/49.1%	1
3173	653	*	1
3336	654	*	1
4197	655	*	1
1491	656	*	1
1903	657	*	1
2404	658	*	1
2610	657	0.0/614aa/91.85%	1
3601	449	5.03e-12/704aa/27.19%	1
3894	659	*	1
4498	310	1.11e-13/251aa/11.88%	1
1108	660	*	1
1819	661	*	1
2025	345	1.33e-45/138:65aa/19.08%	1
2441	652	1.10e-148/618aa/41.1%	1
2886	662	*	1
105	476	5.16e-140/355:102aa/38.07%	1
532	52	9.78e-49/433aa/20.91%	1
918	317	1.22e-09/97aa/5.23%	1
1102	663	*	1
1918	664	*	1
100	632	1.01e-120/331aa/28.68%	1
894	665	*	1
1544	93	8.43e-11/88aa/5.24%	1
1933	666	*	1
2264	17	2.10e-35/287aa/13.6%	1
2633	667	*	1
4045	668	*	1
4562	669	*	1
1426	102	1.64e-40/150aa/11.98%	1
2133	56	8.78e-08/229aa/10.01%	1
2982	670	*	1
4442	88	1.26e-108/626aa/34.31%	1
1724	671	*	1
1989	672	*	1
2135	641	6.09e-09/192aa/8.55%	1
2698	673	*	1
2978	674	*	1
3084	566	1.08e-71/490aa/31.9%	1
2645	675	*	1
4259	351	9.39e-19/158aa/9.06%	1
579	649	1.28e-07/72aa/3.3%	1
1025	676	*	1
1675	677	*	1
1882	71	1.80e-47/319aa/17.82%	1
2125	678	*	1
2306	679	*	1
981	680	*	1
1524	681	*	1
140	682	*	1
1295	683	*	1
2075	684	*	1
3186	685	*	1
4217	559	2.00e-11/143aa/7.11%	1
138	397	5.88e-09/141aa/6.13%	1
2869	594	9.40e-56/437aa/21.22%	1
3706	596	3.15e-33/475aa/23.54%	1
992	686	*	1
1705	687	*	1
4168	586	2.33e-127/596aa/38.2%	1
79	688	*	1
874	689	*	1
925	194	1.28e-12/82aa/7.32%	1
1475	574	1.09e-103/393aa/29.61%	1
2070	690	*	1
1493	691	*	1
1541	692	*	1
1589	693	*	1
2028	694	*	1
2033	695	*	1
3847	115	2.45e-38/526aa/26.87%	1
3934	351	4.67e-17/157aa/9.51%	1
174	522	4.22e-69/346aa/22.74%	1
399	696	*	1
963	697	*	1
4485	698	*	1
550	71	1.66e-48/368aa/20.77%	1
666	699	*	1
2536	700	*	1
2589	701	*	1
511	702	*	1
1211	703	*	1
2145	704	*	1
2345	705	*	1
2800	706	*	1
3824	707	*	1
1123	708	*	1
832	367	6.92e-15/197aa/10.1%	1
2032	709	*	1
3437	710	*	1
1330	711	*	1
1583	712	*	1
3328	569	3.09e-61/328aa/23.31%	1
1962	574	1.85e-95/555aa/33.16%	1
80	713	*	1
379	714	*	1
422	715	*	1
445	694	1.31e-07/34aa/2.88%	1
1575	716	*	1
2322	487	2.12e-08/58aa/4.06%	1
2539	717	*	1
3765	718	*	1
490	574	5.35e-110/385aa/29.71%	1
835	640	1.70e-32/423aa/19.18%	1
2203	719	*	1
2688	720	*	1
346	721	*	1
2445	722	*	1
3865	586	0.0/528aa/49.48%	1
4294	723	*	1
4435	724	*	1
39	122	3.25e-154/521aa/43.95%	1
1692	725	*	1
519	726	*	1
1206	345	1.01e-10/65aa/4.43%	1
4530	727	*	1
1101	728	*	1
2321	729	*	1
3145	730	*	1
541	127	9.87e-12/257aa/13.52%	1
2599	17	4.41e-31/287aa/14.21%	1
795	194	2.10e-12/80aa/7.03%	1
1035	731	*	1
1277	732	*	1
1546	71	2.55e-51/329aa/19.38%	1
46	733	*	1
1279	734	*	1
1421	735	*	1
3434	128	2.83e-84/489aa/29.2%	1
147	412	1.84e-25/361aa/15.66%	1
1200	736	*	1
2859	214	2.80e-36/356aa/17.21%	1
3519	737	*	1
1886	738	*	1
3374	739	*	1
538	740	1.88e-17/95:131aa/12.43%	1
695	740	*	1
727	195	2.11e-13/200aa/9.84%	1
2063	741	*	1
4251	742	*	1
845	743	*	1
1028	744	*	1
1291	745	*	1
1578	102	2.49e-13/124aa/7.26%	1
1769	57	1.22e-24/305aa/15.05%	1
3896	128	1.75e-13/229:274aa/22.83%	1
2394	746	*	1
2884	747	*	1
4219	748	*	1
2086	749	*	1
2316	607	0.0/546aa/57.63%	1
2380	750	*	1
2569	71	7.52e-25/221aa/11.63%	1
319	640	6.68e-39/543aa/26.95%	1
821	640	2.39e-30/390aa/18.6%	1
846	412	2.15e-14/375aa/13.56%	1
1884	751	*	1
1899	511	1.28e-17/98aa/6.6%	1
3749	365	3.13e-83/458aa/31.47%	1
301	752	*	1
1317	753	*	1
2485	719	5.69e-19/199aa/10.45%	1
3913	710	1.43e-100/550aa/32.92%	1
988	754	*	1
2035	607	0.0/550aa/61.08%	1
118	71	2.76e-20/270aa/13.63%	1
3544	482	1.64e-11/167aa/7.16%	1
111	755	*	1
702	641	1.33e-09/119aa/5.6%	1
2386	595	1.34e-63/420aa/27.32%	1
4349	756	*	1
376	93	8.29e-17/458aa/17.89%	1
454	757	*	1
1342	639	0.0/495aa/67.71%	1
2690	758	*	1
2767	759	*	1
2873	760	*	1
4255	761	*	1
2685	93	2.80e-07/142aa/6.67%	1
3772	707	6.91e-43/563aa/25.48%	1
2290	762	*	1
1614	559	4.06e-08/131aa/6.34%	1
1936	763	*	1
2918	764	*	1
4642	765	*	1
134	766	*	1
209	754	1.30e-33/574aa/27.2%	1
304	640	3.99e-53/540aa/30.56%	1
1454	767	*	1
1703	768	*	1
3442	698	2.09e-57/588aa/30.56%	1
4333	769	*	1
201	500	2.37e-08/71aa/4.25%	1
904	770	*	1
1982	771	*	1
2588	772	*	1
3010	710	2.28e-34/474aa/21.63%	1
4284	710	4.60e-88/482aa/30.24%	1
3897	773	*	1
752	516	6.42e-90/265aa/23.75%	1
1063	757	8.16e-149/556aa/43.92%	1
1274	774	*	1
1673	775	*	1
1678	108	4.72e-10/235aa/11.07%	1
3760	776	*	1
4177	178	2.29e-12/365aa/15.53%	1
3804	777	*	1
123	778	*	1
437	779	*	1
1161	780	*	1
2708	781	*	1
4341	644	1.14e-27/519aa/25.26%	1
20	782	*	1
2795	783	*	1
4373	418	9.10e-14/89aa/6.82%	1
658	784	*	1
1571	28	8.25e-11/130aa/7.01%	1
1652	785	*	1
2447	719	3.69e-20/537aa/21.94%	1
3235	786	*	1
4203	411	2.36e-35/434aa/20.32%	1
1345	787	*	1
1397	788	*	1
4230	707	1.59e-39/493aa/25.22%	1
4557	664	2.05e-15/512aa/21.26%	1
729	219	1.72e-24/213aa/12.99%	1
3428	789	*	1
3724	410	1.01e-143/552aa/42.23%	1
1145	790	*	1
1353	791	*	1
2971	792	*	1
3413	793	*	1
4400	794	*	1
952	795	*	1
1057	487	4.17e-09/65aa/4.52%	1
2030	17	5.04e-51/286aa/18.65%	1
2710	657	1.16e-11/256aa/11.59%	1
3581	796	*	1
3918	797	*	1
677	43	4.03e-30/329aa/19.23%	1
1599	757	9.76e-129/543aa/40.65%	1
1701	798	*	1
2501	799	*	1
3313	776	0.0/558aa/63.7%	1
3883	794	5.66e-159/555aa/58.25%	1
1484	800	*	1
3793	801	*	1
4043	609	9.17e-19/558aa/22.36%	1
204	802	*	1
2253	803	*	1
2924	804	*	1
891	357	1.33e-33/213aa/13.86%	1
1377	805	*	1
1935	763	0.0/545aa/72.26%	1
2514	806	*	1
3595	807	*	1
3915	710	3.82e-79/484aa/28.28%	1
4176	808	*	1
4560	607	3.08e-156/531aa/42.33%	1
2446	809	*	1
2488	810	*	1
3138	811	*	1
3314	812	*	1
3381	813	*	1
3666	814	*	1
1422	815	*	1
3196	331	5.92e-43/267aa/15.75%	1
3319	816	*	1
4102	794	2.75e-87/321aa/36.81%	1
4517	774	3.35e-24/454aa/23.99%	1
562	817	*	1
3256	631	1.17e-144/528aa/41.83%	1
873	818	*	1
2188	219	4.44e-28/481aa/21.69%	1
2330	345	2.26e-13/63aa/4.77%	1
2607	783	1.75e-78/536aa/31.61%	1
458	640	7.47e-24/380aa/18.23%	1
601	819	*	1
2558	719	2.98e-15/513aa/20.44%	1
3001	820	*	1
83	821	*	1
281	783	1.18e-79/528aa/31.73%	1
754	639	0.0/500aa/64.57%	1
2138	822	*	1
567	823	*	1
1451	824	*	1
1513	825	*	1
1537	826	*	1
2211	827	*	1
2825	828	*	1
2958	829	*	1
4187	830	*	1
1833	831	*	1
1905	832	*	1
3712	586	2.20e-52/529aa/31.11%	1
1091	833	*	1
1212	834	*	1
1260	835	*	1
1536	836	*	1
2448	837	*	1
30	657	6.59e-28/308aa/16.72%	1
768	657	5.87e-13/255aa/11.89%	1
1174	719	8.29e-13/182aa/9.47%	1
102	838	*	1
451	834	1.52e-125/509aa/37.98%	1
1432	839	*	1
2144	840	*	1
2741	841	*	1
146	17	3.28e-12/269aa/11.38%	1
1351	842	*	1
1501	843	*	1
1858	844	*	1
1937	719	7.24e-12/236aa/11.19%	1
2752	719	9.01e-108/530aa/33.76%	1
2753	719	1.02e-99/493aa/30.78%	1
4062	131	3.86e-20/531aa/24.25%	1
617	810	1.57e-145/533aa/53.27%	1
4053	814	9.64e-117/512aa/34.01%	1
262	194	2.84e-13/73aa/7.49%	1
639	122	6.96e-15/278aa/12.73%	1
3294	845	*	1
2662	846	*	1
3151	794	6.08e-99/486aa/43.52%	1
36	475	1.42e-81/420aa/26.87%	1
440	847	*	1
2155	848	*	1
3933	569	6.56e-31/237aa/16.72%	1
353	849	*	1
516	630	1.49e-101/433aa/35.59%	1
668	850	*	1
685	851	*	1
828	125	8.56e-42/480aa/26.93%	1
1401	231	3.70e-08/67aa/5.08%	1
1452	852	*	1
1780	511	3.05e-25/178aa/11.5%	1
2288	853	*	1
3902	854	*	1
4149	637	2.18e-08/78aa/6.22%	1
4226	664	2.35e-12/496aa/22.07%	1
675	855	*	1
890	855	0.0/529aa/99.05%	1
2530	818	5.66e-56/491aa/26.08%	1
2618	719	4.92e-15/179aa/9.64%	1
3931	128	1.55e-19/248aa/14.17%	1
4192	351	1.76e-08/162aa/8.5%	1
208	71	1.82e-47/366aa/22.15%	1
886	856	*	1
1446	857	*	1
1851	749	6.83e-07/264aa/11.02%	1
2373	719	1.24e-23/477aa/22.05%	1
320	858	*	1
1055	859	*	1
1523	860	*	1
1688	861	*	1
4576	450	1.83e-90/577aa/38.66%	1
3	127	3.32e-09/160aa/8.39%	1
1894	862	*	1
2663	863	*	1
2848	719	9.03e-94/506aa/30.91%	1
3030	814	1.60e-20/496aa/23.66%	1
232	864	*	1
276	125	7.06e-34/427aa/22.75%	1
1659	865	*	1
3065	866	*	1
4657	867	*	1
2185	850	2.03e-95/509aa/37.16%	1
114	868	*	1
193	869	*	1
1624	870	*	1
1839	871	*	1
1282	125	5.54e-22/401aa/20.76%	1
2037	102	3.96e-15/102aa/7.69%	1
2254	719	7.34e-15/197aa/10.19%	1
2684	719	2.53e-20/420aa/16.73%	1
483	872	*	1
2583	719	3.28e-21/185aa/9.82%	1
642	719	7.27e-17/175aa/10.81%	1
2760	473	1.04e-15/82aa/7.14%	1
3928	448	2.80e-27/244aa/13.51%	1
4547	873	*	1
808	874	*	1
1143	875	*	1
1602	876	*	1
2204	17	1.46e-54/272aa/20.3%	1
231	864	0.0/517aa/65.69%	1
936	869	0.0/484aa/56%	1
1485	877	*	1
2156	719	1.98e-23/214aa/12.01%	1
2163	704	0.0/487aa/72.48%	1
3060	878	*	1
3971	814	1.27e-28/467aa/20.73%	1
641	719	1.52e-20/194aa/12.42%	1
650	879	*	1
926	487	5.50e-14/59aa/6.21%	1
1268	880	*	1
1670	881	*	1
3015	882	*	1
4634	883	*	1
215	850	5.62e-95/523aa/35.21%	1
1783	71	1.60e-13/223aa/12.64%	1
1818	884	*	1
3954	885	*	1
4151	886	*	1
4356	887	*	1
1639	361	1.01e-08/42aa/4.67%	1
2686	719	1.41e-24/405aa/17.73%	1
2836	876	7.08e-35/384aa/21.05%	1
3648	569	1.17e-44/323aa/23%	1
3969	657	1.45e-15/259aa/14.03%	1
4415	888	*	1
495	779	3.46e-175/473aa/47.65%	1
1873	71	1.71e-18/216aa/10.74%	1
2217	889	*	1
3063	890	*	1
3176	886	0.0/506aa/77.92%	1
4212	891	*	1
4611	892	*	1
1223	893	*	1
1488	894	*	1
2235	876	0.0/523aa/81.21%	1
73	895	*	1
638	719	3.29e-19/488aa/22.15%	1
1358	896	*	1
1497	355	2.05e-26/399aa/18.62%	1
1944	897	*	1
2060	355	0.0/476aa/48.82%	1
2116	719	1.58e-22/477aa/20.39%	1
2704	719	2.88e-10/535aa/23.52%	1
2719	823	2.03e-12/98aa/7.05%	1
4106	898	*	1
4662	128	5.32e-14/212:262aa/22.54%	1
2164	899	*	1
2765	900	*	1
861	901	*	1
2051	194	8.62e-18/93aa/10.03%	1
2071	902	*	1
2168	903	*	1
2172	904	*	1
2352	719	1.14e-19/217aa/11.81%	1
4443	905	*	1
368	906	*	1
491	907	*	1
512	908	*	1
542	600	2.69e-21/107:93aa/15.18%	1
602	17	1.07e-51/272aa/20.11%	1
834	627	2.84e-25/293aa/16.37%	1
191	165	2.62e-13/298aa/13.43%	1
843	823	4.45e-11/131aa/7.7%	1
1976	909	*	1
1998	441	4.08e-111/494aa/39.52%	1
2087	719	3.32e-12/490aa/21.34%	1
2422	910	*	1
3033	794	2.13e-36/268aa/24.3%	1
3447	911	*	1
1100	657	7.35e-29/310aa/18.41%	1
2297	719	2.66e-15/181aa/9.3%	1
3143	718	1.74e-21/304:147aa/24.55%	1
3916	912	*	1
4614	718	3.06e-20/303:148aa/23.96%	1
803	913	*	1
966	677	3.49e-78/214aa/25.19%	1
1144	914	*	1
2401	915	*	1
3790	128	2.80e-14/223aa/12.3%	1
4128	569	3.93e-67/235aa/25.59%	1
452	424	1.17e-24/301aa/16.3%	1
552	916	*	1
2038	719	3.19e-13/289aa/13.32%	1
2167	917	*	1
2240	719	4.33e-19/371aa/17.09%	1
2726	918	*	1
2801	900	5.51e-87/474aa/31.8%	1
3150	919	*	1
405	854	2.21e-10/274aa/14.14%	1
1395	102	2.53e-17/125aa/9.56%	1
2210	719	1.67e-15/178aa/10.15%	1
2660	719	6.91e-22/184aa/11.95%	1
3811	854	9.50e-20/501aa/26.69%	1
4655	920	*	1
240	921	*	1
407	194	1.81e-13/80aa/7.78%	1