1071	0	*	1
1136	1	*	1
2208	2	*	1
1521	3	*	1
2462	4	*	1
1718	5	*	1
1731	6	*	1
1958	7	*	1
968	2	0.0/3068aa/26.29%	1
2106	8	*	1
1945	9	*	1
927	10	*	1
941	11	*	1
1773	12	*	1
2100	13	*	1
937	12	0.0/1025:1315:54aa/34.19%	1
1049	14	*	1
2039	15	*	1
2733	16	*	1
1585	17	*	1
1768	18	*	1
1147	19	*	1
1107	20	*	1
1737	21	*	1
2266	22	*	1
4620	23	*	1
1168	24	*	1
820	25	*	1
1329	26	*	1
2468	27	*	1
2587	28	*	1
1117	29	*	1
1967	30	*	1
1219	31	*	1
559	32	*	1
2738	33	*	1
1066	34	*	1
973	35	*	1
1096	36	*	1
2329	37	*	1
415	38	*	1
1949	39	*	1
2563	40	*	1
819	41	*	1
56	42	*	1
1869	43	*	1
2518	44	*	1
1779	45	*	1
623	46	*	1
2219	47	*	1
2713	48	*	1
1926	49	*	1
997	50	*	1
1654	51	*	1
917	52	*	1
1156	53	*	1
2734	54	*	1
1176	55	*	1
29	49	0.0/966:861aa/34.58%	1
299	49	0.0/965:844aa/35.5%	1
1726	49	0.0/957:854aa/34.6%	1
523	49	0.0/963:627aa/30.75%	1
2790	56	*	1
1460	57	*	1
1113	58	*	1
979	59	*	1
1060	60	*	1
1241	61	*	1
2212	62	*	1
1817	63	*	1
1957	64	*	1
1306	65	*	1
492	66	*	1
1862	67	*	1
712	68	*	1
2431	69	*	1
2813	70	*	1
2571	71	*	1
2551	72	*	1
806	73	*	1
1947	74	*	1
2141	73	0.0/1648aa/70.32%	1
1805	75	*	1
2339	76	*	1
956	77	*	1
3634	78	*	1
185	79	*	1
1665	80	*	1
2857	64	8.06e-85/985:485aa/25.68%	1
1927	81	*	1
742	82	*	1
135	82	0.0/1601aa/56.39%	1
2680	83	*	1
733	84	*	1
2699	85	*	1
947	86	*	1
2391	87	*	1
1626	88	*	1
1248	89	*	1
1069	90	*	1
1378	91	*	1
962	92	*	1
3837	93	*	1
1910	94	*	1
1866	95	*	1
1442	96	*	1
3967	97	*	1
1359	98	*	1
433	99	*	1
896	100	*	1
1313	101	*	1
2484	102	*	1
2522	103	*	1
825	104	*	1
1062	105	*	1
1586	106	*	1
1618	107	*	1
2453	108	*	1
1007	109	*	1
3409	110	*	1
3583	111	*	1
1224	112	*	1
1712	113	*	1
1620	114	*	1
236	115	*	1
24	116	*	1
1006	117	*	1
1236	115	1.13e-133/1222aa/25.05%	1
2493	118	*	1
1076	119	*	1
4063	120	*	1
1669	121	*	1
1278	122	*	1
1410	123	*	1
4064	120	0.0/1421aa/75.05%	1
66	124	*	1
3694	125	*	1
2620	126	*	1
3342	120	0.0/1259aa/69.5%	1
2197	127	*	1
1549	128	*	1
1015	129	*	1
1863	130	*	1
1890	131	*	1
654	132	*	1
4065	120	0.0/1259aa/70.73%	1
964	133	*	1
1763	134	*	1
2997	135	*	1
1901	136	*	1
1038	137	*	1
2807	138	*	1
1080	139	*	1
1332	140	*	1
1627	141	*	1
1146	142	*	1
1632	100	0.0/1223aa/39.22%	1
3695	143	*	1
987	144	*	1
1082	145	*	1
1496	146	*	1
1791	147	*	1
4026	148	*	1
1160	149	*	1
2629	150	*	1
510	119	3.63e-167/1259aa/28.87%	1
1587	151	*	1
4283	152	*	1
242	153	*	1
457	154	*	1
1104	155	*	1
2779	156	*	1
2864	155	0.0/615:586aa/43.93%	1
1653	157	*	1
3329	158	*	1
439	16	1.15e-95/1291aa/27.72%	1
2984	138	0.0/1301aa/36.13%	1
1259	159	*	1
4669	160	*	1
2532	161	*	1
2556	162	*	1
1036	163	*	1
3877	164	*	1
2516	165	*	1
1584	166	*	1
1065	167	*	1
1292	168	*	1
1710	169	*	1
533	170	*	1
2962	171	*	1
3325	171	0.0/1248aa/78.81%	1
1033	172	*	1
1888	173	*	1
1831	174	*	1
1561	175	*	1
356	176	*	1
1948	177	*	1
986	178	*	1
224	179	*	1
1307	180	*	1
2600	181	*	1
1751	182	*	1
1732	183	*	1
1942	184	*	1
1208	185	*	1
1829	186	*	1
374	187	*	1
413	188	*	1
4020	189	*	1
1435	190	*	1
292	191	*	1
2273	192	*	1
1807	193	*	1
218	194	*	1
3257	195	*	1
1539	196	*	1
2728	197	*	1
318	198	*	1
3767	199	*	1
903	200	*	1
2435	201	*	1
2162	202	*	1
3866	203	*	1
2840	204	*	1
546	205	*	1
359	206	*	1
3402	207	*	1
1099	208	*	1
684	209	*	1
1664	197	0.0/1159aa/37.2%	1
184	210	*	1
5	211	*	1
1074	212	*	1
2048	213	*	1
1394	214	*	1
3378	215	*	1
3281	216	*	1
3453	217	*	1
159	218	*	1
1661	219	*	1
2512	220	*	1
2517	221	*	1
229	222	*	1
651	223	*	1
931	218	7.78e-162/747aa/26.4%	1
1636	224	*	1
2095	225	*	1
1051	226	*	1
203	227	*	1
889	228	*	1
2009	229	*	1
112	230	*	1
3762	231	*	1
2715	43	3.34e-75/747:184aa/25.73%	1
2605	232	*	1
60	233	*	1
1843	234	*	1
1547	235	*	1
1603	236	*	1
1770	237	*	1
383	238	*	1
1668	239	*	1
2337	240	*	1
3350	36	0.0/1004aa/37.74%	1
2150	241	*	1
2460	242	*	1
1047	243	*	1
2221	244	*	1
1287	245	*	1
1684	246	*	1
2523	247	*	1
4218	248	*	1
117	249	*	1
396	250	*	1
901	251	*	1
1257	252	*	1
152	253	*	1
1554	254	*	1
4588	255	*	1
1362	256	*	1
4054	257	*	1
1300	258	*	1
1849	259	*	1
1803	260	*	1
2073	261	*	1
3632	255	9.72e-90/1001aa/27.21%	1
1577	262	*	1
1685	263	*	1
4502	264	*	1
2659	265	*	1
1616	266	*	1
3587	255	0.0/1001aa/63.35%	1
2647	267	*	1
1125	268	*	1
1266	269	*	1
4006	255	0.0/1001aa/74.95%	1
3817	270	*	1
2904	271	*	1
1	272	*	1
1974	273	*	1
2657	274	*	1
1503	275	*	1
1643	276	*	1
1874	277	*	1
1507	278	*	1
1801	279	*	1
2810	261	1.08e-99/1063aa/31.17%	1
4007	280	*	1
2249	281	*	1
2593	282	*	1
27	283	*	1
948	284	*	1
731	187	0.0/637aa/35.71%	1
2628	285	*	1
136	286	*	1
1314	287	*	1
860	288	*	1
1001	289	*	1
369	290	*	1
1103	291	*	1
2822	292	*	1
2140	293	*	1
847	294	*	1
2814	219	0.0/1092aa/57.9%	1
1574	295	*	1
2119	296	*	1
1023	297	*	1
2196	222	2.65e-66/286:177:99aa/29.04%	1
1550	298	*	1
2646	299	*	1
3475	300	*	1
591	301	*	1
2409	302	*	1
2851	303	*	1
502	304	*	1
158	305	*	1
1744	306	*	1
307	307	*	1
1902	308	*	1
1042	309	*	1
1828	310	*	1
2461	311	*	1
1988	312	*	1
697	313	*	1
1263	314	*	1
1682	315	*	1
1856	316	*	1
2682	317	*	1
188	318	*	1
1124	319	*	1
1789	320	*	1
1968	321	*	1
343	322	*	1
478	323	*	1
1070	324	*	1
2661	325	*	1
3101	326	*	1
3107	327	*	1
1252	328	*	1
719	329	*	1
2745	330	*	1
1348	331	*	1
9	332	*	1
1011	333	*	1
2200	334	*	1
588	335	*	1
910	233	0.0/716:189aa/47.13%	1
1367	336	*	1
1800	337	*	1
1852	338	*	1
3539	339	*	1
3819	340	*	1
2480	341	*	1
1416	342	*	1
471	343	*	1
1765	344	*	1
1531	345	*	1
4605	346	*	1
965	347	*	1
3788	348	*	1
1030	349	*	1
2638	350	*	1
2592	351	*	1
1462	352	*	1
4337	353	*	1
1865	354	*	1
4650	355	*	1
730	356	*	1
696	357	*	1
4594	358	*	1
703	359	*	1
1127	360	*	1
4570	361	*	1
688	362	*	1
1242	363	*	1
1339	364	*	1
1276	365	*	1
1596	366	*	1
11	367	*	1
692	368	*	1
1980	369	*	1
2021	370	*	1
1794	358	0.0/876aa/35.47%	1
4075	371	*	1
2358	372	*	1
2395	373	*	1
2543	374	*	1
1018	375	*	1
2069	376	*	1
2285	377	*	1
3487	378	*	1
1368	379	*	1
2014	380	*	1
3070	381	*	1
1453	382	*	1
314	383	*	1
1112	313	0.0/853aa/48.45%	1
1286	384	*	1
2936	385	*	1
1131	386	*	1
2681	387	*	1
2041	388	*	1
3613	389	*	1
4266	390	*	1
18	391	*	1
2559	392	*	1
3298	261	2.08e-77/849aa/26.72%	1
381	147	0.0/541aa/31.32%	1
2020	393	*	1
3093	394	*	1
19	303	9.25e-50/663:168aa/26.2%	1
700	395	*	1
2827	54	0.0/910aa/68.6%	1
3754	396	*	1
3929	397	*	1
2890	398	*	1
4101	399	*	1
4342	400	*	1
2700	401	*	1
812	402	*	1
235	403	*	1
245	397	0.0/895aa/53.1%	1
2170	404	*	1
3467	405	*	1
899	406	*	1
1601	407	*	1
2596	408	*	1
3946	409	*	1
1261	410	*	1
1318	411	*	1
2159	412	*	1
1715	413	*	1
1925	414	*	1
23	384	6.74e-162/341aa/27.09%	1
31	415	*	1
3884	416	*	1
2553	417	*	1
2839	418	*	1
2110	419	*	1
1408	420	*	1
2090	421	*	1
4471	422	*	1
1128	423	*	1
1990	424	*	1
4276	425	*	1
4543	426	*	1
2845	427	*	1
3508	428	*	1
1162	429	*	1
389	419	0.0/867aa/49.19%	1
1139	430	*	1
1373	431	*	1
1402	432	*	1
3802	433	*	1
1253	434	*	1
3797	435	*	1
933	436	*	1
1058	437	*	1
3705	438	*	1
228	439	*	1
2957	440	*	1
3642	422	1.02e-122/874aa/32.36%	1
3860	441	*	1
938	442	*	1
3129	97	0.0/901aa/43.45%	1
3117	443	*	1
1473	444	*	1
1225	445	*	1
1495	446	*	1
1702	447	*	1
4448	448	*	1
157	449	*	1
1878	450	*	1
1154	451	*	1
515	452	*	1
2080	453	*	1
4525	454	*	1
217	455	*	1
1474	456	*	1
4082	457	*	1
678	266	9.97e-170/281:206aa/33.01%	1
1209	458	*	1
1272	459	*	1
347	401	1.38e-107/900aa/31.72%	1
4188	460	*	1
1323	461	*	1
1934	462	*	1
1365	463	*	1
1911	464	*	1
2338	455	0.0/852aa/81.04%	1
2694	465	*	1
2858	466	*	1
4654	467	*	1
1608	468	*	1
42	469	*	1
409	470	*	1
867	471	*	1
1647	472	*	1
2206	473	*	1
1870	474	*	1
2066	475	*	1
3538	476	*	1
2223	477	*	1
3901	476	0.0/834aa/45.24%	1
569	468	2.64e-119/871aa/31.92%	1
1195	478	*	1
2126	364	0.0/573:133aa/64.85%	1
3989	479	*	1
391	480	*	1
1778	481	*	1
4436	422	1.20e-108/858aa/30.26%	1
322	482	*	1
869	483	*	1
133	484	*	1
1740	485	*	1
1814	486	*	1
1052	487	*	1
595	488	*	1
26	489	*	1
4621	490	*	1
1319	491	*	1
1854	492	*	1
1398	493	*	1
1720	494	*	1
466	495	*	1
88	317	0.0/570:182aa/51.9%	1
3275	496	*	1
4377	465	0.0/809aa/48.83%	1
572	497	*	1
1221	498	*	1
1520	499	*	1
4492	460	2.63e-86/760aa/29.6%	1
463	500	*	1
1046	501	*	1
3710	502	*	1
2376	503	*	1
811	504	*	1
161	505	*	1
810	504	0.0/800aa/87.88%	1
3126	506	*	1
1576	507	*	1
3160	460	1.39e-74/760aa/27.72%	1
2887	460	4.47e-71/751aa/27.75%	1
4137	508	*	1
1056	509	*	1
1844	510	*	1
2198	511	*	1
4549	512	*	1
4579	513	*	1
632	514	*	1
1333	504	0.0/776aa/77.65%	1
1189	515	*	1
334	516	*	1
1121	517	*	1
207	518	*	1
467	519	*	1
1567	520	*	1
3253	465	0.0/774aa/44.16%	1
1280	521	*	1
4484	522	*	1
2967	523	*	1
616	347	0.0/591aa/50.37%	1
982	524	*	1
924	525	*	1
1821	526	*	1
1960	527	*	1
1301	528	*	1
187	503	0.0/776aa/67.63%	1
298	529	*	1
1921	530	*	1
2669	531	*	1
1152	532	*	1
61	533	*	1
929	534	*	1
1014	535	*	1
1297	536	*	1
2769	537	*	1
3252	538	*	1
3303	539	*	1
1633	540	*	1
2832	541	*	1
531	542	*	1
573	543	*	1
43	544	*	1
475	545	*	1
3803	546	*	1
221	547	*	1
1250	548	*	1
2232	549	*	1
2931	550	*	1
777	551	*	1
801	552	*	1
1846	553	*	1
2437	554	*	1
1883	555	*	1
1106	458	7.23e-173/770aa/36.3%	1
2205	556	*	1
4585	557	*	1
4152	558	*	1
278	533	3.34e-138/711aa/34.58%	1
1881	559	*	1
400	560	*	1
3635	561	*	1
1034	562	*	1
1848	563	*	1
1970	564	*	1
2174	565	*	1
2247	566	*	1
2578	567	*	1
377	556	4.24e-85/802aa/29.01%	1
2449	568	*	1
1251	569	*	1
4626	570	*	1
1172	469	0.0/762aa/98.16%	1
4514	571	*	1
1595	572	*	1
3394	503	9.87e-74/784aa/28.25%	1
198	573	*	1
1320	574	*	1
2190	575	*	1
3777	570	0.0/752aa/78.55%	1
3560	576	*	1
3895	577	*	1
1486	578	*	1
2370	579	*	1
3056	448	6.67e-75/401:325aa/39.18%	1
817	580	*	1
3365	581	*	1
974	582	*	1
2218	583	*	1
4256	584	*	1
2667	585	*	1
3624	586	*	1
3998	587	*	1
1739	482	0.0/761aa/56.64%	1
3628	428	8.35e-114/752aa/34.97%	1
2082	588	*	1
2413	589	*	1
2696	590	*	1
323	591	*	1
4470	592	*	1
126	593	*	1
1321	594	*	1
2278	514	7.16e-124/662aa/31.14%	1
1105	595	*	1
1637	596	*	1
3274	597	*	1
3577	598	*	1
2970	599	*	1
694	600	*	1
2034	482	0.0/751aa/56.51%	1
2820	601	*	1
4211	602	*	1
84	603	*	1
1579	604	*	1
4035	605	*	1
1569	606	*	1
1734	607	*	1
82	608	*	1
2111	609	*	1
1465	610	*	1
1234	611	*	1
1331	612	*	1
3135	613	*	1
1316	614	*	1
1885	615	*	1
2084	616	*	1
3721	617	*	1
2371	618	*	1
2757	619	*	1
1558	620	*	1
1694	621	*	1
2191	622	*	1
687	458	0.0/695aa/37.9%	1
360	623	*	1
1429	624	*	1
1983	404	5.34e-100/637aa/29.6%	1
21	187	3.54e-175/656aa/37.84%	1
247	625	*	1
565	626	*	1
1877	627	*	1
2724	628	*	1
3924	629	*	1
4120	630	*	1
4480	584	2.35e-106/678aa/29.09%	1
977	631	*	1
1093	632	*	1
2549	633	*	1
548	634	*	1
1357	635	*	1
2612	636	*	1
1431	637	*	1
3789	638	*	1
4055	598	1.19e-95/711aa/28.94%	1
624	639	*	1
393	640	*	1
3418	641	*	1
3441	642	*	1
447	643	*	1
674	644	*	1
902	645	*	1
1448	646	*	1
1650	647	*	1
934	648	*	1
1542	649	*	1
2439	650	*	1
3580	651	*	1
1984	652	*	1
455	653	*	1
1270	654	*	1
1642	655	*	1
1655	656	*	1
1912	657	*	1
2287	658	*	1
726	659	*	1
3607	642	0.0/709aa/50.69%	1
4427	660	*	1
2105	661	*	1
3295	662	*	1
195	663	*	1
350	664	*	1
701	665	*	1
1781	666	*	1
2740	667	*	1
1699	668	*	1
1889	669	*	1
2057	573	9.78e-111/417:215aa/42.39%	1
2778	670	*	1
4374	671	*	1
2324	672	*	1
3466	584	5.00e-160/740aa/37.2%	1
1130	673	*	1
2993	674	*	1
3104	675	*	1
3741	676	*	1
3598	584	3.14e-152/735aa/36.04%	1
1499	677	*	1
4613	678	*	1
357	679	*	1
720	680	*	1
2282	681	*	1
2463	682	*	1
2568	683	*	1
655	684	*	1
767	685	*	1
1204	686	*	1
2177	687	*	1
2849	688	*	1
1808	689	*	1
773	614	0.0/763aa/62.37%	1
145	690	*	1
419	691	*	1
97	692	*	1
596	693	*	1
912	694	*	1
1346	695	*	1
1564	696	*	1
1816	697	*	1
1857	698	*	1
2952	591	7.49e-168/709aa/43.32%	1
608	573	1.05e-102/417:213aa/42.16%	1
1977	699	*	1
2595	700	*	1
3360	605	1.03e-122/680aa/31.05%	1
4247	701	*	1
321	606	9.63e-106/675aa/33.66%	1
1472	702	*	1
762	612	7.30e-65/735aa/26.57%	1
1309	703	*	1
2022	704	*	1
2311	614	1.58e-121/327:138aa/33.42%	1
3049	705	*	1
4603	706	*	1
309	707	*	1
316	535	8.35e-128/361aa/29.18%	1
1532	708	*	1
1436	709	*	1
3395	710	*	1
3623	710	0.0/696aa/64.18%	1
611	711	*	1
1457	712	*	1
2291	713	*	1
2007	714	*	1
2384	715	*	1
2665	716	*	1
4167	717	*	1
2411	718	*	1
2624	670	1.89e-90/385:44aa/34.63%	1
4535	719	*	1
994	720	*	1
1876	721	*	1
2153	722	*	1
442	723	*	1
1932	643	2.12e-115/703aa/33.47%	1
1335	724	*	1
4363	725	*	1
4458	726	*	1
823	727	*	1
1302	728	*	1
2312	729	*	1
2868	730	*	1
855	731	*	1
1611	732	*	1
921	702	3.05e-60/641aa/26.02%	1
1386	733	*	1
1693	734	*	1
1893	735	*	1
3702	736	*	1
1560	737	*	1
3845	738	*	1
96	614	9.28e-142/328:155aa/40.17%	1
3688	739	*	1
4486	120	0.0/604aa/76.24%	1
280	740	*	1
920	741	*	1
1760	364	2.93e-91/707aa/30.1%	1
1887	742	*	1
2064	743	*	1
4499	744	*	1
1004	745	*	1
2479	746	*	1
288	466	8.66e-98/608aa/31.71%	1
1159	747	*	1
1417	748	*	1
3399	749	*	1
3903	750	*	1
738	751	*	1
868	752	*	1
3494	753	*	1
2664	754	*	1
1141	121	0.0/386:180aa/82.34%	1
1355	755	*	1
836	756	*	1
4042	757	*	1
4581	660	1.21e-119/641aa/36.4%	1
15	688	0.0/622aa/55.05%	1
626	758	*	1
2743	759	*	1
3689	760	*	1
3731	761	*	1
1518	762	*	1
2687	614	6.38e-167/561aa/38%	1
4441	763	*	1
4279	764	*	1
1054	765	*	1
1061	766	*	1
1388	767	*	1
1534	768	*	1
2729	769	*	1
1830	770	*	1
3014	771	*	1
989	772	*	1
1097	773	*	1
1492	729	1.55e-114/573aa/32.58%	1
1666	774	*	1
2056	775	*	1
571	776	*	1
882	777	*	1
2165	778	*	1
53	779	*	1
599	780	*	1
1019	781	*	1
2777	782	*	1
2929	783	*	1
459	784	*	1
1111	785	*	1
1423	786	*	1
2877	787	*	1
2327	788	*	1
2366	789	*	1
3280	790	*	1
2613	791	*	1
3103	792	*	1
3530	793	*	1
857	681	1.96e-129/663aa/35.35%	1
1533	794	*	1
2154	795	*	1
4476	796	*	1
1961	797	*	1
4265	798	*	1
4297	799	*	1
645	732	6.54e-178/602aa/45.66%	1
2276	800	*	1
905	732	0.0/601aa/47.25%	1
181	801	*	1
1695	802	*	1
3246	803	*	1
17	804	*	1
907	805	*	1
1529	806	*	1
4037	807	*	1
1188	808	*	1
1327	809	*	1
3746	810	*	1
4345	811	*	1
1477	812	*	1
1895	813	*	1
2151	814	*	1
2058	732	2.89e-172/587aa/46.23%	1
1304	815	*	1
1755	772	1.95e-114/541aa/31.69%	1
493	816	*	1
1656	817	*	1
1743	818	*	1
2107	819	*	1
2576	820	*	1
2754	821	*	1
3087	822	*	1
4447	823	*	1
4531	824	*	1
361	825	*	1
2477	826	*	1
3099	827	*	1
3551	828	*	1
4017	502	1.36e-44/651aa/26.39%	1
93	829	*	1
1289	830	*	1
4234	831	*	1
1166	832	*	1
1875	833	*	1
2679	732	3.80e-172/571aa/45.95%	1
4649	644	5.11e-152/631aa/37.38%	1
1298	732	1.96e-173/596aa/47.42%	1
1714	732	4.09e-174/596aa/47.73%	1
2346	732	1.96e-173/596aa/47.42%	1
2347	732	1.96e-173/596aa/47.42%	1
462	732	0.0/604aa/47.34%	1
1115	695	1.16e-107/292:55aa/27.54%	1
3392	834	*	1
1233	835	*	1
3704	732	0.0/604aa/58.93%	1
1879	836	*	1
1959	837	*	1
3907	838	*	1
4609	839	*	1
340	473	1.81e-72/313:161aa/28.14%	1
3333	840	*	1
1384	841	*	1
1822	842	*	1
2245	732	1.16e-173/601aa/46.14%	1
2655	843	*	1
3116	838	4.62e-68/623aa/27.87%	1
317	844	*	1
636	845	*	1
1823	846	*	1
1311	847	*	1
87	848	*	1
1470	849	*	1
1137	850	*	1
1784	851	*	1
2677	852	*	1
2909	853	*	1
3629	512	9.87e-113/555:66aa/40.31%	1
2420	854	*	1
3554	855	*	1
3807	856	*	1
1641	857	*	1
1914	858	*	1
1173	859	*	1
1463	860	*	1
121	772	2.47e-120/551aa/34.34%	1
282	861	*	1
1294	509	2.02e-177/379:63aa/44.4%	1
1337	862	*	1
2029	863	*	1
1254	864	*	1
1425	865	*	1
1504	866	*	1
1677	867	*	1
3874	868	*	1
3708	573	6.78e-119/675aa/39.9%	1
52	869	*	1
975	113	3.22e-129/576aa/39.64%	1
4522	870	*	1
424	871	*	1
1867	872	*	1
2104	873	*	1
1151	874	*	1
1232	875	*	1
1415	873	4.09e-162/549aa/48.79%	1
728	876	*	1
1482	877	*	1
3149	878	*	1
3286	879	*	1
679	880	*	1
736	881	*	1
2263	882	*	1
2317	661	1.49e-91/426aa/26.49%	1
2652	883	*	1
3195	884	*	1
91	885	*	1
2483	886	*	1
816	887	*	1
403	888	*	1
3203	732	1.77e-123/527aa/37.17%	1
3979	803	3.68e-47/569aa/27.59%	1
558	816	5.05e-178/596aa/44.22%	1
681	889	*	1
1622	851	0.0/592aa/49.1%	1
3173	890	*	1
3336	891	*	1
4197	892	*	1
1491	893	*	1
1903	894	*	1
2404	895	*	1
2610	894	0.0/614aa/91.85%	1
3601	599	5.33e-12/704aa/27.19%	1
3894	896	*	1
4498	897	*	1
1108	898	*	1
1819	899	*	1
2025	900	*	1
2441	888	1.25e-148/618aa/41.1%	1
2886	901	*	1
105	636	5.47e-140/355:102aa/38.07%	1
532	902	*	1
918	903	*	1
1102	904	*	1
1918	905	*	1
100	862	1.15e-120/331aa/28.68%	1
894	906	*	1
1544	907	*	1
1933	908	*	1
2264	909	*	1
2633	910	*	1
4045	911	*	1
4562	912	*	1
1426	913	*	1
2133	914	*	1
2982	915	*	1
4442	108	1.26e-108/626aa/34.31%	1
1724	916	*	1
1989	917	*	1
2135	918	*	1
2698	919	*	1
2978	920	*	1
3084	761	9.05e-72/490aa/31.9%	1
2645	921	*	1
4259	922	*	1
579	923	*	1
1025	924	*	1
1675	925	*	1
1882	614	3.11e-127/338:56aa/34.32%	1
2125	926	*	1
2306	927	*	1
981	928	*	1
1524	929	*	1
140	930	*	1
1295	931	*	1
2075	932	*	1
3186	933	*	1
4217	934	*	1
138	935	*	1
2869	936	*	1
3706	937	*	1
992	938	*	1
1705	939	*	1
4168	789	1.96e-127/596aa/38.2%	1
79	940	*	1
874	941	*	1
925	942	*	1
1475	772	9.12e-104/393aa/29.61%	1
2070	943	*	1
1493	944	*	1
1541	945	*	1
1589	946	*	1
2028	947	*	1
2033	948	*	1
3847	746	2.74e-63/599aa/28.71%	1
3934	949	*	1
174	950	*	1
399	951	*	1
963	952	*	1
4485	953	*	1
550	614	2.37e-120/340:72aa/35%	1
666	954	*	1
2536	955	*	1
2589	956	*	1
511	957	*	1
1211	958	*	1
2145	959	*	1
2345	960	*	1
2800	961	*	1
3824	962	*	1
1123	963	*	1
832	578	2.23e-87/298aa/25.25%	1
2032	964	*	1
3437	965	*	1
1330	966	*	1
1583	967	*	1
3328	968	*	1
1962	774	1.69e-115/528aa/36.54%	1
80	969	*	1
379	970	*	1
422	971	*	1
445	972	*	1
1575	973	*	1
2322	974	*	1
2539	975	*	1
3765	976	*	1
490	772	4.49e-110/385aa/29.71%	1
835	977	*	1
2203	978	*	1
2688	979	*	1
346	980	*	1
2445	981	*	1
3865	789	0.0/528aa/49.48%	1
4294	982	*	1
4435	983	*	1
39	149	3.25e-154/521aa/43.95%	1
1692	984	*	1
519	985	*	1
1206	986	*	1
4530	987	*	1
1101	988	*	1
2321	989	*	1
3145	990	*	1
541	991	*	1
2599	909	2.69e-173/390:146aa/59.24%	1
795	992	*	1
1035	993	*	1
1277	994	*	1
1546	995	*	1
46	996	*	1
1279	997	*	1
1421	998	*	1
3434	155	2.83e-84/489aa/29.2%	1
147	977	1.44e-177/574aa/45.61%	1
1200	999	*	1
2859	716	3.28e-88/357:118aa/36.48%	1
3519	1000	*	1
1886	1001	*	1
3374	1002	*	1
538	1003	*	1
695	1004	*	1
727	1005	*	1
2063	1006	*	1
4251	1007	*	1
845	1008	*	1
1028	1009	*	1
1291	1010	*	1
1578	1011	*	1
1769	843	1.87e-127/464aa/36.67%	1
3896	1012	*	1
2394	1013	*	1
2884	778	3.55e-112/600aa/39.16%	1
4219	1014	*	1
2086	1015	*	1
2316	819	0.0/546aa/57.63%	1
2380	1016	*	1
2569	816	0.0/593aa/46.18%	1
319	977	0.0/539aa/51.3%	1
821	977	1.52e-167/539aa/40.69%	1
846	1017	*	1
1884	1018	*	1
1899	1019	*	1
3749	476	3.32e-83/458aa/31.47%	1
301	1020	*	1
1317	1021	*	1
2485	1022	*	1
3913	965	1.62e-100/550aa/32.92%	1
988	1023	*	1
2035	819	0.0/550aa/61.08%	1
118	695	2.42e-164/293:140aa/51.39%	1
3544	1024	*	1
111	1025	*	1
702	1026	*	1
2386	802	1.12e-63/420aa/27.32%	1
4349	1027	*	1
376	1028	*	1
454	1029	*	1
1342	872	0.0/495aa/67.71%	1
2690	1030	*	1
2767	1031	*	1
2873	1032	*	1
4255	1033	*	1
2685	1034	*	1
3772	962	7.85e-43/563aa/25.48%	1
2290	1035	*	1
1614	1036	*	1
1936	1037	*	1
2918	1038	*	1
4642	1039	*	1
134	1040	*	1
209	1023	1.48e-33/574aa/27.2%	1
304	873	4.53e-53/540aa/30.56%	1
1454	1041	*	1
1703	1042	*	1
3442	953	2.38e-57/588aa/30.56%	1
4333	1043	*	1
201	1044	*	1
904	1045	*	1
1982	1046	*	1
2588	1047	*	1
3010	1048	*	1
4284	965	5.23e-88/482aa/30.24%	1
3897	1049	*	1
752	1050	*	1
1063	1029	9.26e-149/556aa/43.92%	1
1274	1051	*	1
1673	1052	*	1
1678	1053	*	1
3760	1054	*	1
4177	1055	*	1
3804	1056	*	1
123	1057	*	1
437	1058	*	1
1161	1059	*	1
2708	1060	*	1
4341	878	1.30e-27/519aa/25.26%	1
20	1061	*	1
2795	1062	*	1
4373	1063	*	1
658	1064	*	1
1571	1065	*	1
1652	1066	*	1
2447	1067	*	1
3235	1068	*	1
4203	732	5.56e-77/594aa/32.73%	1
1345	1069	*	1
1397	1070	*	1
4230	962	1.81e-39/493aa/25.22%	1
4557	838	5.00e-69/532aa/30.09%	1
729	817	5.64e-52/553aa/28.33%	1
3428	1071	*	1
3724	549	1.08e-143/552aa/42.23%	1
1145	1072	*	1
1353	1073	*	1
2971	1074	*	1
3413	1075	*	1
4400	1076	*	1
952	1077	*	1
1057	1078	*	1
2030	531	6.87e-107/477aa/34.78%	1
2710	1079	*	1
3581	1080	*	1
3918	1081	*	1
677	1082	*	1
1599	1029	1.11e-128/543aa/40.65%	1
1701	1083	*	1
2501	1084	*	1
3313	1054	0.0/558aa/63.7%	1
3883	1076	6.43e-159/555aa/58.25%	1
1484	1085	*	1
3793	1086	*	1
4043	1087	*	1
204	1088	*	1
2253	1089	*	1
2924	1090	*	1
891	1091	*	1
1377	1092	*	1
1935	1037	0.0/545aa/72.26%	1
2514	1093	*	1
3595	1094	*	1
3915	965	4.34e-79/484aa/28.28%	1
4176	1095	*	1
4560	819	2.58e-156/531aa/42.33%	1
2446	1096	*	1
2488	1097	*	1
3138	1098	*	1
3314	1099	*	1
3381	1100	*	1
3666	1101	*	1
1422	1102	*	1
3196	1103	*	1
3319	1104	*	1
4102	1076	3.12e-87/321aa/36.81%	1
4517	1105	*	1
562	1106	*	1
3256	860	1.33e-144/528aa/41.83%	1
873	1107	*	1
2188	1108	*	1
2330	1109	*	1
2607	1062	1.98e-78/536aa/31.61%	1
458	977	1.06e-151/532aa/44.56%	1
601	1110	*	1
2558	1111	*	1
3001	1112	*	1
83	1113	*	1
281	1062	1.34e-79/528aa/31.73%	1
754	872	0.0/500aa/64.57%	1
2138	1114	*	1
567	1115	*	1
1451	1116	*	1
1513	1117	*	1
1537	1118	*	1
2211	1119	*	1
2825	1120	*	1
2958	1121	*	1
4187	1122	*	1
1833	1123	*	1
1905	1124	*	1
3712	789	1.84e-52/529aa/31.11%	1
1091	1125	*	1
1212	1126	*	1
1260	1127	*	1
1536	1128	*	1
2448	1129	*	1
30	1130	*	1
768	1079	0.0/532aa/79.18%	1
1174	1131	*	1
102	1132	*	1
451	1126	1.32e-125/509aa/37.98%	1
1432	1133	*	1
2144	1134	*	1
2741	1135	*	1
146	1136	*	1
1351	1137	*	1
1501	1138	*	1
1858	1139	*	1
1937	1140	*	1
2752	978	1.02e-107/530aa/33.76%	1
2753	978	1.15e-99/493aa/30.78%	1
4062	1141	*	1
617	1097	1.37e-145/533aa/53.27%	1
4053	1101	8.40e-117/512aa/34.01%	1
262	1142	*	1
639	1143	*	1
3294	1144	*	1
2662	1145	*	1
3151	1076	6.91e-99/486aa/43.52%	1
36	634	1.50e-81/420aa/26.87%	1
440	1146	*	1
2155	1147	*	1
3933	1148	*	1
353	1149	*	1
516	859	1.69e-101/433aa/35.59%	1
668	1150	*	1
685	1151	*	1
828	152	8.56e-42/480aa/26.93%	1
1401	1152	*	1
1452	1153	*	1
1780	1154	*	1
2288	1155	*	1
3902	1156	*	1
4149	1157	*	1
4226	838	2.61e-94/529aa/32.83%	1
675	1158	*	1
890	1158	0.0/529aa/99.05%	1
2530	1107	4.93e-56/491aa/26.08%	1
2618	1159	*	1
3931	381	2.62e-26/532aa/27.59%	1
4192	591	1.47e-41/521aa/26.08%	1
208	614	1.05e-93/311aa/26.32%	1
886	1160	*	1
1446	1161	*	1
1851	1162	*	1
2373	1067	7.73e-76/481aa/29.46%	1
320	1163	*	1
1055	1164	*	1
1523	1165	*	1
1688	1166	*	1
4576	600	1.94e-90/577aa/38.66%	1
3	1167	*	1
1894	1168	*	1
2663	1169	*	1
2848	978	1.03e-93/506aa/30.91%	1
3030	1170	*	1
232	1171	*	1
276	1172	*	1
1659	1173	*	1
3065	1174	*	1
4657	1175	*	1
2185	1150	1.77e-95/509aa/37.16%	1
114	1176	*	1
193	1177	*	1
1624	1178	*	1
1839	1179	*	1
1282	1172	0.0/508aa/66.15%	1
2037	1180	*	1
2254	1159	2.09e-116/504aa/36.73%	1
2684	1181	*	1
483	1182	*	1
2583	1159	3.43e-131/506aa/39.49%	1
642	1183	*	1
2760	1184	*	1
3928	1185	*	1
4547	1186	*	1
808	1187	*	1
1143	1188	*	1
1602	1189	*	1
2204	531	1.54e-114/456aa/36.94%	1
231	1171	0.0/517aa/65.69%	1
936	1177	0.0/484aa/56%	1
1485	1190	*	1
2156	1159	3.45e-62/492aa/25.77%	1
2163	959	0.0/487aa/72.48%	1
3060	1191	*	1
3971	1170	1.32e-36/526aa/25.58%	1
641	1183	0.0/501aa/56.11%	1
650	1192	*	1
926	1193	*	1
1268	1194	*	1
1670	1195	*	1
3015	1196	*	1
4634	1197	*	1
215	1150	4.90e-95/523aa/35.21%	1
1783	1198	*	1
1818	1199	*	1
3954	1200	*	1
4151	1201	*	1
4356	1202	*	1
1639	1203	*	1
2686	1181	0.0/515aa/65.3%	1
2836	1204	*	1
3648	1205	*	1
3969	1079	0.0/514aa/54.97%	1
4415	1206	*	1
495	1058	3.93e-175/473aa/47.65%	1
1873	1207	*	1
2217	1208	*	1
3063	1209	*	1
3176	1201	0.0/506aa/77.92%	1
4212	1210	*	1
4611	1211	*	1
1223	1212	*	1
1488	1213	*	1
2235	1189	0.0/523aa/81.21%	1
73	1214	*	1
638	1183	5.59e-115/508aa/38.82%	1
1358	1215	*	1
1497	1216	*	1
1944	1217	*	1
2060	461	0.0/476aa/48.82%	1
2116	1067	1.01e-70/501aa/28.62%	1
2704	1111	1.33e-18/507aa/25.49%	1
2719	1218	*	1
4106	1219	*	1
4662	1220	*	1
2164	1221	*	1
2765	1222	*	1
861	1223	*	1
2051	1224	*	1
2071	1225	*	1
2168	1226	*	1
2172	1227	*	1
2352	1159	5.75e-64/506aa/27.75%	1
4443	1228	*	1
368	1229	*	1
491	1230	*	1
512	1231	*	1
542	1232	*	1
602	531	1.12e-106/431aa/34.31%	1
834	1233	*	1
191	1234	*	1
843	1235	*	1
1976	1236	*	1
1998	587	4.32e-111/494aa/39.52%	1
2087	1131	7.41e-170/484aa/47.43%	1
2422	1237	*	1
3033	1238	*	1
3447	1239	*	1
1100	1130	0.0/465aa/80.99%	1
2297	1159	8.17e-62/497aa/26.73%	1
3143	1240	*	1
3916	1241	*	1
4614	1240	0.0/505aa/88.71%	1
803	1242	*	1
966	925	3.96e-78/214aa/25.19%	1
1144	1243	*	1
2401	1244	*	1
3790	1220	5.83e-114/513aa/39.88%	1
4128	764	3.30e-67/235aa/25.59%	1
452	1245	*	1
552	1246	*	1
2038	1247	*	1
2167	1248	*	1
2240	1159	6.74e-70/499aa/28.62%	1
2726	1249	*	1
2801	1222	4.80e-87/474aa/31.8%	1
3150	1250	*	1
405	1251	*	1
1395	1252	*	1
2210	1131	5.10e-88/491aa/32.27%	1
2660	1159	4.61e-77/492aa/32.47%	1
3811	1251	1.09e-138/504aa/42.82%	1
4655	1253	*	1
240	1254	*	1
407	698	5.95e-61/386aa/25.94%	1
2209	1131	2.88e-82/490aa/31.33%	1
2259	1255	*	1
2581	1151	7.79e-47/434aa/25.34%	1
2584	1159	1.06e-115/500aa/38.52%	1
4375	1256	*	1
1530	1257	*	1
1598	1258	*	1
2392	1259	*	1
3950	1260	*	1
4460	1261	*	1
949	1262	*	1
2277	1159	3.25e-62/483aa/30.86%	1
2332	1263	*	1
3890	1172	1.46e-55/442aa/26.85%	1
1757	1264	*	1
3510	1265	*	1
477	1266	*	1
2843	1267	*	1
4360	1268	*	1
4604	1269	*	1
427	1270	*	1
2017	885	7.24e-80/470aa/34.87%	1
4139	1271	*	1
167	1272	*	1
417	1273	*	1
1072	1274	*	1
2762	1275	*	1
2771	1276	*	1
2841	1067	4.07e-94/503aa/34.14%	1
3506	1277	*	1
3630	1278	*	1
3820	1279	*	1
4078	1280	*	1
4434	1172	2.19e-54/457aa/28.28%	1
1088	1281	*	1
1565	1282	*	1
1719	1283	*	1
2357	1242	2.32e-107/508aa/43.52%	1
2844	1284	*	1
631	1247	3.77e-42/510aa/26.57%	1
1517	1285	*	1
2127	1286	*	1
2362	1159	1.89e-78/483aa/34.27%	1
2989	1287	*	1
3027	1288	*	1
243	1289	*	1
390	848	2.83e-71/432aa/28.65%	1
485	1290	*	1
922	1291	*	1
1009	1292	*	1
1315	1293	*	1
1681	1294	*	1
2701	1178	0.0/447aa/71.74%	1
2852	1295	*	1
3159	1296	*	1
3197	152	1.87e-43/439aa/28.86%	1
4138	1297	*	1
260	1298	*	1
549	1299	*	1
2417	1300	*	1
3267	1301	*	1
4238	1169	2.21e-90/471aa/34.82%	1
4396	1302	*	1
778	1303	*	1
1527	1304	*	1
2459	1305	*	1
2772	1306	*	1
2879	1307	*	1
3327	1172	2.61e-59/478aa/28.97%	1
1403	1308	*	1
1966	1309	*	1
3405	248	1.09e-68/423aa/31.08%	1
3672	1287	4.03e-49/479aa/25.97%	1
1556	1310	*	1
2572	1311	*	1
3352	1134	1.21e-91/487aa/40.98%	1
38	1312	*	1
1003	1044	2.69e-43/139:105aa/29.15%	1
3018	1313	*	1
129	1314	*	1
2636	1315	*	1
2695	1316	*	1
3293	1317	*	1
3299	1318	*	1
449	885	1.08e-30/157:168aa/26.18%	1
3957	1319	*	1
1216	28	4.74e-79/404aa/32.64%	1
1721	1320	*	1
2642	1067	8.07e-36/538aa/26.85%	1
1827	1321	*	1
2573	1322	*	1
3077	1323	*	1
3148	1324	*	1
4519	1325	*	1
222	1326	*	1
182	1327	*	1
238	1328	*	1
241	1329	*	1
1231	1330	*	1
1356	1331	*	1
3515	1332	*	1
3287	1333	*	1
3384	1145	7.64e-80/494aa/37.7%	1
89	1334	*	1
337	1335	*	1
1837	1336	*	1
2023	1337	*	1
2333	1338	*	1
2865	1339	*	1
2896	1340	*	1
3201	1172	8.58e-50/474aa/29.01%	1
4114	1341	*	1
646	1342	*	1
935	1343	*	1
2627	1344	*	1
4468	1254	1.50e-105/462aa/38.49%	1
72	1345	*	1
2702	1346	*	1
3311	1347	*	1
3549	120	2.57e-161/335aa/54.5%	1
3690	1348	*	1
4351	1349	*	1
4615	1157	1.07e-64/496aa/36.47%	1
603	1331	1.63e-109/441aa/38.65%	1
1185	1350	*	1
2561	1351	*	1
879	1352	*	1
1413	1353	*	1
1772	1354	*	1
2976	1355	*	1
3509	1210	1.06e-34/431aa/28.42%	1
3576	1356	*	1
3839	1357	*	1
4457	1358	*	1
792	1359	*	1
1552	1360	*	1
2861	1361	*	1
2916	1362	*	1
3248	1077	1.52e-38/493aa/29.53%	1
4199	959	4.28e-28/462aa/27.63%	1
4391	1363	*	1
137	1364	*	1
605	959	7.56e-67/438aa/35.94%	1
2562	1365	*	1
3520	1366	*	1
384	578	1.84e-53/279aa/25.42%	1
883	1367	*	1
1340	1368	*	1
1704	1369	*	1
1747	1370	*	1
2885	1371	*	1
3057	1372	*	1
3463	1373	*	1
3848	796	0.0/461aa/65.04%	1
4539	1374	*	1
395	1375	*	1
2257	1376	*	1
2926	1377	*	1
3501	1378	*	1
3776	1379	*	1
4077	1380	*	1
4153	1210	5.14e-21/424aa/25.47%	1
196	1381	*	1
915	1382	*	1
930	1383	*	1
3133	1384	*	1
3364	1145	9.69e-130/482aa/49.36%	1
275	1385	*	1
367	1386	*	1
2433	1387	*	1
4235	1388	*	1
4236	968	3.90e-75/328aa/29.85%	1
429	1389	*	1
1723	985	7.98e-137/312aa/45.29%	1
1975	1381	6.37e-178/458aa/51.92%	1
2625	289	5.84e-28/145:90:64aa/28.41%	1
3425	1390	*	1
37	1391	*	1
65	1392	*	1
371	1282	4.31e-150/443aa/44.75%	1
3140	1393	*	1
3747	1254	0.0/463aa/58.02%	1
3999	1394	*	1
4186	1395	*	1
1399	1396	*	1
2031	1397	*	1
3465	1398	*	1
3943	1399	*	1
4123	1400	*	1
4426	1399	0.0/466aa/98.71%	1
535	1401	*	1
3289	1402	*	1
3787	1403	*	1
4089	1404	*	1
261	1405	*	1
955	1406	*	1
1005	1407	*	1
1797	1408	*	1
1909	1409	*	1
2229	1410	*	1
3375	1411	*	1
156	1004	8.41e-60/275:81aa/30.66%	1
380	1412	*	1
665	375	1.52e-49/356aa/25.26%	1
689	1414	0.0/447aa/80.12%	1
1687	224	1.77e-123/398aa/40.38%	1
1777	1413	*	1
1896	1414	*	1
2137	1415	*	1
3507	1416	*	1
3944	1417	*	1
480	1418	*	1
747	1419	*	1
900	1414	0.0/447aa/89.39%	1
2193	1353	3.19e-65/458aa/29.87%	1
2747	1420	*	1
4061	152	1.26e-23/447aa/25.1%	1
4105	1421	*	1
576	1422	*	1
865	1179	0.0/415aa/62.03%	1
1187	1423	*	1
3330	1424	*	1
3435	1425	*	1
3535	764	1.23e-83/353aa/36.87%	1
4590	1426	*	1
1753	1427	*	1
3187	1428	*	1
3304	1130	0.0/463aa/69.56%	1
4118	1429	*	1
4388	1366	8.46e-40/467aa/28.04%	1
4478	1430	*	1
779	186	7.07e-60/421aa/30.71%	1
1140	1431	*	1
1148	661	1.55e-58/354aa/25.49%	1
1764	1432	*	1
4555	1433	*	1
3513	1400	1.21e-86/431aa/34.71%	1
4370	1434	*	1
48	1004	2.74e-22/99:308aa/25.16%	1
560	1435	*	1
589	1006	4.66e-136/422aa/42.88%	1
1861	1353	0.0/452aa/82.27%	1
2442	1436	*	1
3006	1437	*	1
3088	1438	*	1
3739	1439	*	1
4113	1302	2.17e-27/407aa/25.16%	1
4229	1400	5.53e-70/431aa/31.5%	1
378	1440	*	1
1604	1331	2.55e-116/454aa/43.85%	1
2299	1441	*	1
2975	1442	*	1
3673	1443	*	1
3805	1444	*	1
7	1445	*	1
1956	1446	*	1
2054	1447	*	1
2478	1448	*	1
3058	1449	*	1
3523	1450	*	1
4015	1362	1.51e-175/440aa/56.04%	1
122	1451	*	1
274	1385	1.80e-129/474aa/44.27%	1
939	998	2.01e-115/259aa/39.42%	1
1334	1353	3.26e-86/451aa/33.7%	1
3250	788	2.25e-85/349aa/31.71%	1
3768	1452	*	1
4299	1453	*	1
4627	1454	*	1
172	1455	*	1
1581	1456	*	1
1689	1457	*	1
2893	1458	*	1
3152	1459	*	1
3745	1460	*	1
2456	721	6.24e-39/91:225aa/29.2%	1
2720	1006	4.59e-139/409aa/43.8%	1
3389	1461	*	1
3421	1462	*	1
3816	1463	*	1
4323	1464	*	1
1396	1465	*	1
3282	1466	*	1
3590	1467	*	1
4672	1141	2.62e-16/506aa/25.72%	1
253	1468	*	1
287	1353	9.72e-91/445aa/34.22%	1
349	1368	9.85e-162/387aa/47.77%	1
1563	1469	*	1
2024	1353	4.64e-71/446aa/31.55%	1
2027	1353	3.07e-71/446aa/31.77%	1
3206	1470	*	1
4237	1467	3.16e-31/460aa/26%	1
4424	1471	*	1
1222	1472	*	1
1409	1473	*	1
2128	900	1.63e-112/260aa/38.97%	1
2166	1419	4.65e-73/326aa/38.53%	1
2922	1474	*	1
4008	198	8.59e-109/448aa/42.31%	1
561	853	1.88e-42/398aa/26.11%	1
1120	1475	*	1
2013	1476	*	1
2425	1477	*	1
2755	1478	*	1
958	1479	*	1
980	1480	*	1
1709	1481	*	1
2307	1482	*	1
2932	1483	*	1
2995	1484	*	1
3272	1485	*	1
4507	1486	*	1
4541	1487	*	1
1868	1488	*	1
1993	1353	5.01e-86/439aa/33.85%	1
3334	1489	*	1
227	1490	*	1
545	1227	0.0/402aa/60.22%	1
699	1412	2.02e-89/185aa/28.08%	1
1379	1491	*	1