1071	0	*	1
1136	1	*	1
2208	2	*	1
1521	3	*	1
2462	2	0.0/4418aa/24.3%	1
1718	4	*	1
1731	5	*	1
1958	6	*	1
968	2	0.0/3068aa/26.29%	1
2106	7	*	1
1945	8	*	1
927	9	*	1
941	10	*	1
1773	11	*	1
2100	12	*	1
937	11	0.0/1025:1315:54aa/34.19%	1
1049	13	*	1
2039	14	*	1
2733	15	*	1
1585	16	*	1
1768	17	*	1
1147	18	*	1
1107	19	*	1
1737	20	*	1
2266	21	*	1
4620	22	*	1
1168	23	*	1
820	24	*	1
1329	25	*	1
2468	21	3.19e-120/956aa/12.74%	1
2587	26	*	1
1117	27	*	1
1967	28	*	1
1219	29	*	1
559	30	*	1
2738	2	1.14e-34/927:578aa/16.96%	1
1066	31	*	1
973	32	*	1
1096	33	*	1
2329	34	*	1
415	16	3.41e-52/307:327:288aa/13.58%	1
1949	35	*	1
2563	36	*	1
819	37	*	1
56	38	*	1
1869	39	*	1
2518	40	*	1
1779	41	*	1
623	42	*	1
2219	43	*	1
2713	44	*	1
1926	45	*	1
997	46	*	1
1654	47	*	1
917	48	*	1
1156	49	*	1
2734	50	*	1
1176	51	*	1
29	45	0.0/966:861aa/34.58%	1
299	45	0.0/965:844aa/35.5%	1
1726	45	0.0/957:854aa/34.6%	1
523	45	0.0/963:627aa/30.75%	1
2790	52	*	1
1460	53	*	1
1113	54	*	1
979	55	*	1
1060	56	*	1
1241	57	*	1
2212	58	*	1
1817	59	*	1
1957	6	6.34e-88/1485aa/19.68%	1
1306	60	*	1
492	61	*	1
1862	62	*	1
712	63	*	1
2431	64	*	1
2813	65	*	1
2571	66	*	1
2551	67	*	1
806	68	*	1
1947	69	*	1
2141	68	0.0/1648aa/70.32%	1
1805	70	*	1
2339	71	*	1
956	72	*	1
3634	73	*	1
185	74	*	1
1665	52	2.05e-98/642:105:181:155aa/22.59%	1
2857	6	3.35e-125/1425aa/24.4%	1
1927	75	*	1
742	76	*	1
135	76	0.0/1601aa/56.39%	1
2680	77	*	1
733	78	*	1
2699	79	*	1
947	80	*	1
2391	81	*	1
1626	82	*	1
1248	83	*	1
1069	84	*	1
1378	85	*	1
962	86	*	1
3837	87	*	1
1910	88	*	1
1866	89	*	1
1442	90	*	1
3967	91	*	1
1359	92	*	1
433	93	*	1
896	94	*	1
1313	95	*	1
2484	96	*	1
2522	2	6.59e-54/1089aa/18.24%	1
825	97	*	1
1062	45	1.73e-46/804aa/12.99%	1
1586	98	*	1
1618	99	*	1
2453	100	*	1
1007	101	*	1
3409	102	*	1
3583	103	*	1
1224	104	*	1
1712	105	*	1
1620	106	*	1
236	107	*	1
24	108	*	1
1006	109	*	1
1236	107	1.13e-133/1222aa/25.05%	1
2493	110	*	1
1076	111	*	1
4063	112	*	1
1669	113	*	1
1278	114	*	1
1410	115	*	1
4064	112	0.0/1421aa/75.05%	1
66	94	6.42e-30/865aa/14.68%	1
3694	52	2.07e-41/841aa/14.92%	1
2620	116	*	1
3342	112	0.0/1259aa/69.5%	1
2197	117	*	1
1549	34	1.13e-54/1037aa/17.26%	1
1015	118	*	1
1863	119	*	1
1890	120	*	1
654	121	*	1
4065	112	0.0/1259aa/70.73%	1
964	122	*	1
1763	123	*	1
2997	124	*	1
1901	125	*	1
1038	126	*	1
2807	127	*	1
1080	128	*	1
1332	129	*	1
1627	130	*	1
1146	131	*	1
1632	94	0.0/1223aa/39.22%	1
3695	132	*	1
987	133	*	1
1082	134	*	1
1496	135	*	1
1791	136	*	1
4026	137	*	1
1160	138	*	1
2629	139	*	1
510	111	3.63e-167/1259aa/28.87%	1
1587	140	*	1
4283	141	*	1
242	142	*	1
457	143	*	1
1104	144	*	1
2779	34	6.57e-76/1124aa/21.73%	1
2864	144	0.0/615:586aa/43.93%	1
1653	145	*	1
3329	146	*	1
439	15	1.15e-95/1291aa/27.72%	1
2984	127	0.0/1301aa/36.13%	1
1259	146	3.48e-60/525aa/12.76%	1
4669	147	*	1
2532	148	*	1
2556	149	*	1
1036	150	*	1
3877	151	*	1
2516	152	*	1
1584	153	*	1
1065	154	*	1
1292	155	*	1
1710	156	*	1
533	157	*	1
2962	158	*	1
3325	158	0.0/1248aa/78.81%	1
1033	159	*	1
1888	160	*	1
1831	161	*	1
1561	162	*	1
356	163	*	1
1948	164	*	1
986	165	*	1
224	166	*	1
1307	167	*	1
2600	168	*	1
1751	169	*	1
1732	170	*	1
1942	171	*	1
1208	172	*	1
1829	173	*	1
374	146	9.82e-123/641aa/19.25%	1
413	174	*	1
4020	175	*	1
1435	176	*	1
292	177	*	1
2273	178	*	1
1807	4	1.34e-26/508aa/11.51%	1
218	179	*	1
3257	180	*	1
1539	181	*	1
2728	182	*	1
318	183	*	1
3767	184	*	1
903	185	*	1
2435	186	*	1
2162	187	*	1
3866	188	*	1
2840	189	*	1
546	190	*	1
359	191	*	1
3402	192	*	1
1099	193	*	1
684	194	*	1
1664	182	0.0/1159aa/37.2%	1
184	195	*	1
5	196	*	1
1074	197	*	1
2048	198	*	1
1394	199	*	1
3378	200	*	1
3281	201	*	1
3453	202	*	1
159	203	*	1
1661	117	1.96e-56/914aa/20.8%	1
2512	204	*	1
2517	205	*	1
229	206	*	1
651	207	*	1
931	203	7.78e-162/747aa/26.4%	1
1636	78	1.46e-72/350aa/12.12%	1
2095	208	*	1
1051	209	*	1
203	210	*	1
889	211	*	1
2009	212	*	1
112	213	*	1
3762	214	*	1
2715	39	3.34e-75/747:184aa/25.73%	1
2605	215	*	1
60	216	*	1
1843	217	*	1
1547	218	*	1
1603	219	*	1
1770	220	*	1
383	221	*	1
1668	222	*	1
2337	223	*	1
3350	33	0.0/1004aa/37.74%	1
2150	224	*	1
2460	225	*	1
1047	226	*	1
2221	227	*	1
1287	228	*	1
1684	229	*	1
2523	9	1.71e-25/322:161aa/13.47%	1
4218	230	*	1
117	231	*	1
396	232	*	1
901	233	*	1
1257	234	*	1
152	235	*	1
1554	236	*	1
4588	237	*	1
1362	238	*	1
4054	239	*	1
1300	240	*	1
1849	241	*	1
1803	242	*	1
2073	243	*	1
3632	237	9.72e-90/1001aa/27.21%	1
1577	244	*	1
1685	245	*	1
4502	91	1.69e-23/501aa/13.37%	1
2659	246	*	1
1616	247	*	1
3587	237	0.0/1001aa/63.35%	1
2647	248	*	1
1125	249	*	1
1266	250	*	1
4006	237	0.0/1001aa/74.95%	1
3817	232	1.00e-25/442aa/11.82%	1
2904	251	*	1
1	252	*	1
1974	253	*	1
2657	50	4.29e-107/526aa/21.32%	1
1503	254	*	1
1643	255	*	1
1874	256	*	1
1507	257	*	1
1801	258	*	1
2810	243	1.08e-99/1063aa/31.17%	1
4007	259	*	1
2249	260	*	1
2593	261	*	1
27	262	*	1
948	263	*	1
731	146	4.34e-113/641aa/22.42%	1
2628	264	*	1
136	265	*	1
1314	266	*	1
860	267	*	1
1001	268	*	1
369	269	*	1
1103	270	*	1
2822	271	*	1
2140	272	*	1
847	273	*	1
2814	117	2.24e-46/864aa/21.7%	1
1574	274	*	1
2119	275	*	1
1023	276	*	1
2196	206	2.65e-66/286:177:99aa/29.04%	1
1550	277	*	1
2646	278	*	1
3475	279	*	1
591	280	*	1
2409	281	*	1
2851	282	*	1
502	283	*	1
158	284	*	1
1744	285	*	1
307	286	*	1
1902	287	*	1
1042	288	*	1
1828	289	*	1
2461	225	1.21e-67/135:115aa/20.26%	1
1988	290	*	1
697	291	*	1
1263	292	*	1
1682	293	*	1
1856	294	*	1
2682	227	9.70e-69/397aa/16.3%	1
188	295	*	1
1124	296	*	1
1789	297	*	1
1968	298	*	1
343	299	*	1
478	300	*	1
1070	301	*	1
2661	302	*	1
3101	303	*	1
3107	304	*	1
1252	305	*	1
719	306	*	1
2745	307	*	1
1348	308	*	1
9	309	*	1
1011	310	*	1
2200	311	*	1
588	312	*	1
910	216	0.0/716:189aa/47.13%	1
1367	313	*	1
1800	314	*	1
1852	315	*	1
3539	316	*	1
3819	317	*	1
2480	318	*	1
1416	319	*	1
471	320	*	1
1765	321	*	1
1531	322	*	1
4605	323	*	1
965	324	*	1
3788	175	1.33e-25/115:248aa/14.85%	1
1030	325	*	1
2638	326	*	1
2592	327	*	1
1462	328	*	1
4337	329	*	1
1865	330	*	1
4650	323	3.63e-35/821aa/18.97%	1
730	331	*	1
696	332	*	1
4594	333	*	1
703	334	*	1
1127	335	*	1
4570	336	*	1
688	337	*	1
1242	338	*	1
1339	339	*	1
1276	21	1.10e-78/498aa/18.18%	1
1596	340	*	1
11	341	*	1
692	342	*	1
1980	343	*	1
2021	344	*	1
1794	333	0.0/876aa/35.47%	1
4075	175	1.07e-22/236:115aa/12.2%	1
2358	216	4.65e-18/271:155aa/12.43%	1
2395	178	5.28e-49/600aa/17.01%	1
2543	345	*	1
1018	346	*	1
2069	347	*	1
2285	348	*	1
3487	175	3.27e-28/473aa/14.44%	1
1368	349	*	1
2014	350	*	1
3070	351	*	1
1453	352	*	1
314	78	7.57e-64/449aa/16.62%	1
1112	291	0.0/853aa/48.45%	1
1286	353	*	1
2936	354	*	1
1131	355	*	1
2681	356	*	1
2041	357	*	1
3613	358	*	1
4266	359	*	1
18	110	3.43e-29/596aa/17.14%	1
2559	298	3.73e-36/475aa/13.91%	1
3298	243	2.08e-77/849aa/26.72%	1
381	136	0.0/541aa/31.32%	1
2020	360	*	1
3093	361	*	1
19	282	9.25e-50/663:168aa/26.2%	1
700	362	*	1
2827	50	0.0/910aa/68.6%	1
3754	363	*	1
3929	364	*	1
2890	365	*	1
4101	366	*	1
4342	367	*	1
2700	368	*	1
812	369	*	1
235	370	*	1
245	364	0.0/895aa/53.1%	1
2170	371	*	1
3467	372	*	1
899	373	*	1
1601	374	*	1
2596	375	*	1
3946	376	*	1
1261	377	*	1
1318	378	*	1
2159	379	*	1
1715	380	*	1
1925	381	*	1
23	353	6.60e-162/341aa/27.09%	1
31	382	*	1
3884	383	*	1
2553	384	*	1
2839	385	*	1
2110	386	*	1
1408	387	*	1
2090	223	1.47e-14/188:73aa/10.02%	1
4471	383	1.81e-73/907aa/27.22%	1
1128	169	7.89e-23/185:76aa/10.37%	1
1990	388	*	1
4276	389	*	1
4543	390	*	1
2845	391	*	1
3508	392	*	1
1162	393	*	1
389	386	0.0/867aa/49.19%	1
1139	394	*	1
1373	395	*	1
1402	396	*	1
3802	397	*	1
1253	398	*	1
3797	399	*	1
933	400	*	1
1058	401	*	1
3705	402	*	1
228	403	*	1
2957	404	*	1
3642	383	1.13e-66/869aa/27.74%	1
3860	391	3.03e-29/508aa/15.14%	1
938	405	*	1
3129	91	0.0/901aa/43.45%	1
3117	323	3.57e-27/398aa/12.2%	1
1473	406	*	1
1225	407	*	1
1495	408	*	1
1702	409	*	1
4448	410	*	1
157	411	*	1
1878	412	*	1
1154	413	*	1
515	48	1.95e-35/141:107:79aa/17.35%	1
2080	414	*	1
4525	178	3.54e-64/587aa/21.92%	1
217	415	*	1
1474	416	*	1
4082	417	*	1
678	247	9.97e-170/281:206aa/33.01%	1
1209	418	*	1
1272	312	3.41e-13/370aa/11.18%	1
347	368	1.35e-107/900aa/31.72%	1
4188	419	*	1
1323	420	*	1
1934	421	*	1
1365	422	*	1
1911	423	*	1
2338	415	0.0/852aa/81.04%	1
2694	424	*	1
2858	425	*	1
4654	426	*	1
1608	427	*	1
42	428	*	1
409	429	*	1
867	241	7.94e-44/259aa/11.7%	1
1647	430	*	1
2206	217	8.05e-21/145:135aa/11.84%	1
1870	431	*	1
2066	15	4.48e-62/340aa/16.44%	1
3538	432	*	1
2223	295	1.92e-35/237aa/10.45%	1
3901	432	0.0/834aa/45.24%	1
569	427	2.58e-119/871aa/31.92%	1
1195	433	*	1
2126	339	0.0/573:133aa/64.85%	1
3989	259	3.48e-20/377aa/10.86%	1
391	434	*	1
1778	435	*	1
4436	383	8.29e-50/778aa/23.24%	1
322	436	*	1
869	437	*	1
133	438	*	1
1740	439	*	1
1814	440	*	1
1052	441	*	1
595	442	*	1
26	443	*	1
4621	444	*	1
1319	445	*	1
1854	371	1.38e-91/460aa/22.46%	1
1398	446	*	1
1720	447	*	1
466	448	*	1
88	227	1.68e-65/368aa/18.4%	1
3275	383	3.74e-149/850aa/35.58%	1
4377	424	0.0/809aa/48.83%	1
572	449	*	1
1221	450	*	1
1520	451	*	1
4492	419	2.58e-86/760aa/29.6%	1
463	452	*	1
1046	453	*	1
3710	454	*	1
2376	455	*	1
811	436	1.06e-43/381aa/16.29%	1
161	456	*	1
810	436	6.97e-43/381aa/16.06%	1
3126	146	8.63e-67/441aa/19.15%	1
1576	457	*	1
3160	419	1.36e-74/760aa/27.72%	1
2887	419	4.38e-71/751aa/27.75%	1
4137	458	*	1
1056	227	1.96e-45/357aa/16.39%	1
1844	245	4.22e-24/336aa/12.17%	1
2198	459	*	1
4549	93	5.05e-28/505aa/16.54%	1
4579	460	*	1
632	217	2.51e-23/345aa/11.22%	1
1333	436	3.07e-42/387aa/15.6%	1
1189	461	*	1
334	462	*	1
1121	463	*	1
207	254	5.36e-27/537aa/18.17%	1
467	19	3.91e-49/295aa/14.17%	1
1567	464	*	1
3253	424	0.0/774aa/44.16%	1
1280	465	*	1
4484	466	*	1
2967	467	*	1
616	324	0.0/591aa/50.37%	1
982	468	*	1
924	469	*	1
1821	0	3.96e-27/158:159aa/13.36%	1
1960	462	1.14e-25/592aa/16.51%	1
1301	470	*	1
187	455	0.0/776aa/67.63%	1
298	471	*	1
1921	472	*	1
2669	222	1.40e-54/270aa/12.97%	1
1152	473	*	1
61	217	1.66e-62/293aa/15.05%	1
929	474	*	1
1014	227	4.58e-74/384aa/20.66%	1
1297	50	1.17e-57/540aa/20.02%	1
2769	475	*	1
3252	476	*	1
3303	477	*	1
1633	478	*	1
2832	479	*	1
531	480	*	1
573	481	*	1
43	482	*	1
475	483	*	1
3803	484	*	1
221	485	*	1
1250	486	*	1
2232	487	*	1
2931	175	1.55e-35/660aa/22.62%	1
777	488	*	1
801	489	*	1
1846	490	*	1
2437	491	*	1
1883	492	*	1
1106	418	7.08e-173/770aa/36.3%	1
2205	493	*	1
4585	494	*	1
4152	495	*	1
278	217	1.06e-52/307aa/14.89%	1
1881	496	*	1
400	497	*	1
3635	498	*	1
1034	499	*	1
1848	500	*	1
1970	501	*	1
2174	502	*	1
2247	503	*	1
2578	504	*	1
377	493	4.15e-85/802aa/29.01%	1
2449	505	*	1
1251	506	*	1
4626	507	*	1
1172	428	0.0/762aa/98.16%	1
4514	508	*	1
1595	509	*	1
3394	455	9.67e-74/784aa/28.25%	1
198	510	*	1
1320	511	*	1
2190	512	*	1
3777	507	0.0/752aa/78.55%	1
3560	513	*	1
3895	259	2.42e-15/369aa/12.38%	1
1486	436	7.03e-15/242aa/10.02%	1
2370	514	*	1
3056	410	6.53e-75/401:325aa/39.18%	1
817	515	*	1
3365	516	*	1
974	517	*	1
2218	518	*	1
4256	519	*	1
2667	520	*	1
3624	521	*	1
3998	522	*	1
1739	436	0.0/761aa/56.64%	1
3628	392	8.18e-114/752aa/34.97%	1
2082	523	*	1
2413	524	*	1
2696	525	*	1
323	415	1.97e-18/464:163aa/22.66%	1
4470	526	*	1
126	527	*	1
1321	528	*	1
2278	217	2.64e-30/267aa/10.96%	1
1105	529	*	1
1637	530	*	1
3274	494	1.27e-09/325aa/10.17%	1
3577	531	*	1
2970	532	*	1
694	533	*	1
2034	436	0.0/751aa/56.51%	1
2820	534	*	1
4211	535	*	1
84	536	*	1
1579	537	*	1
4035	538	*	1
1569	539	*	1
1734	540	*	1
82	541	*	1
2111	542	*	1
1465	543	*	1
1234	544	*	1
1331	545	*	1
3135	546	*	1
1316	78	1.81e-59/403aa/18.53%	1
1885	334	3.99e-33/266aa/12.31%	1
2084	547	*	1
3721	548	*	1
2371	549	*	1
2757	550	*	1
1558	551	*	1
1694	377	8.05e-32/339aa/13.43%	1
2191	552	*	1
687	418	0.0/695aa/37.9%	1
360	553	*	1
1429	554	*	1
1983	371	5.23e-100/637aa/29.6%	1
21	146	9.28e-111/646aa/31.01%	1
247	555	*	1
565	556	*	1
1877	557	*	1
2724	558	*	1
3924	243	8.41e-09/285:71aa/13.25%	1
4120	559	*	1
4480	519	2.30e-106/678aa/29.09%	1
977	560	*	1
1093	561	*	1
2549	354	1.30e-48/407aa/17.09%	1
548	562	*	1
1357	563	*	1
2612	564	*	1
1431	111	1.87e-46/312aa/14.4%	1
3789	565	*	1
4055	531	1.16e-95/711aa/28.94%	1
624	15	2.18e-17/485aa/17.85%	1
393	566	*	1
3418	567	*	1
3441	568	*	1
447	569	*	1
674	570	*	1
902	571	*	1
1448	572	*	1
1650	573	*	1
934	574	*	1
1542	575	*	1
2439	576	*	1
3580	577	*	1
1984	578	*	1
455	579	*	1
1270	580	*	1
1642	581	*	1
1655	582	*	1
1912	583	*	1
2287	584	*	1
726	217	9.80e-27/245aa/10.13%	1
3607	568	0.0/709aa/50.69%	1
4427	585	*	1
2105	292	3.98e-42/418aa/17.66%	1
3295	147	1.05e-10/317aa/11.82%	1
195	458	1.95e-36/278aa/12.25%	1
350	586	*	1
701	90	3.05e-62/581aa/23.81%	1
1781	587	*	1
2740	588	*	1
1699	589	*	1
1889	590	*	1
2057	510	9.58e-111/417:215aa/42.39%	1
2778	591	*	1
4374	592	*	1
2324	593	*	1
3466	519	4.90e-160/740aa/37.2%	1
1130	217	1.34e-32/317aa/13.44%	1
2993	455	2.37e-37/646aa/21.14%	1
3104	594	*	1
3741	513	6.51e-44/349aa/15.12%	1
3598	519	3.08e-152/735aa/36.04%	1
1499	595	*	1
4613	596	*	1
357	597	*	1
720	462	4.16e-33/731aa/23.38%	1
2282	598	*	1
2463	599	*	1
2568	600	*	1
655	601	*	1
767	602	*	1
1204	603	*	1
2177	604	*	1
2849	605	*	1
1808	606	*	1
773	78	3.38e-60/354aa/18.52%	1
145	607	*	1
419	509	4.79e-56/546aa/23.65%	1
97	608	*	1
596	609	*	1
912	190	8.46e-23/262aa/10.78%	1
1346	245	1.62e-53/286aa/16.9%	1
1564	610	*	1
1816	611	*	1
1857	223	2.94e-26/339aa/13.21%	1
2952	415	3.73e-24/426:159aa/24.71%	1
608	510	1.03e-102/417:213aa/42.16%	1
1977	612	*	1
2595	380	4.03e-17/364aa/13.67%	1
3360	538	1.01e-122/680aa/31.05%	1
4247	613	*	1
321	539	9.43e-106/675aa/33.66%	1
1472	614	*	1
762	545	7.15e-65/735aa/26.57%	1
1309	615	*	1
2022	227	5.35e-51/339aa/18%	1
2311	217	5.65e-58/336aa/17.42%	1
3049	494	2.47e-19/644aa/22.42%	1
4603	616	*	1
309	312	4.09e-13/330aa/12.3%	1
316	227	9.19e-83/368aa/23.17%	1
1532	617	*	1
1436	618	*	1
3395	619	*	1
3623	619	0.0/696aa/64.18%	1
611	620	*	1
1457	621	*	1
2291	622	*	1
2007	623	*	1
2384	624	*	1
2665	248	9.65e-44/343aa/13.97%	1
4167	625	*	1
2411	626	*	1
2624	591	1.85e-90/385:44aa/34.63%	1
4535	192	6.95e-65/429aa/22.94%	1
994	627	*	1
1876	457	2.20e-19/90:169aa/12.01%	1
2153	628	*	1
442	629	*	1
1932	569	2.08e-115/703aa/33.47%	1
1335	630	*	1
4363	631	*	1
4458	632	*	1
823	633	*	1
1302	634	*	1
2312	635	*	1
2868	636	*	1
855	637	*	1
1611	488	3.24e-53/517aa/22.88%	1
921	614	2.98e-60/641aa/26.02%	1
1386	638	*	1
1693	639	*	1
1893	640	*	1
3702	585	1.26e-20/340aa/13.88%	1
1560	641	*	1
3845	642	*	1
96	217	1.68e-51/350aa/16.56%	1
3688	643	*	1
4486	112	0.0/604aa/76.24%	1
280	600	3.21e-16/134:392aa/17.76%	1
920	644	*	1
1760	339	2.93e-91/707aa/30.1%	1
1887	645	*	1
2064	292	2.54e-67/518aa/23.52%	1
4499	646	*	1
1004	647	*	1
2479	131	1.50e-53/532aa/24%	1
288	425	8.48e-98/608aa/31.71%	1
1159	648	*	1
1417	334	1.59e-29/253aa/11.35%	1
3399	649	*	1
3903	650	*	1
738	607	1.57e-22/235aa/10.19%	1
868	651	*	1
3494	652	*	1
2664	653	*	1
1141	113	0.0/386:180aa/82.34%	1
1355	654	*	1
836	655	*	1
4042	656	*	1
4581	585	1.19e-119/641aa/36.4%	1
15	605	0.0/622aa/55.05%	1
626	657	*	1
2743	658	*	1
3689	659	*	1
3731	660	*	1
1518	661	*	1
2687	217	1.71e-50/300aa/14.75%	1
4441	662	*	1
4279	663	*	1
1054	664	*	1
1061	665	*	1
1388	666	*	1
1534	92	1.80e-38/251aa/13.6%	1
2729	245	1.95e-64/286aa/18.08%	1
1830	667	*	1
3014	668	*	1
989	669	*	1
1097	670	*	1
1492	653	1.75e-77/644aa/27.32%	1
1666	669	1.65e-90/341aa/21.77%	1
2056	227	4.55e-46/301aa/15.16%	1
571	671	*	1
882	672	*	1
2165	673	*	1
53	674	*	1
599	675	*	1
1019	676	*	1
2777	677	*	1
2929	678	*	1
459	679	*	1
1111	680	*	1
1423	681	*	1
2877	531	5.03e-26/252aa/10.87%	1
2327	292	3.27e-29/391aa/16.33%	1
2366	682	*	1
3280	531	5.57e-29/439aa/17.54%	1
2613	683	*	1
3103	684	*	1
3530	685	*	1
857	598	1.92e-129/663aa/35.35%	1
1533	686	*	1
2154	687	*	1
4476	232	5.40e-42/446aa/21.85%	1
1961	688	*	1
4265	689	*	1
4297	690	*	1
645	488	1.83e-71/657aa/29.22%	1
2276	691	*	1
905	488	7.01e-73/675aa/28.81%	1
181	692	*	1
1695	693	*	1
3246	694	*	1
17	695	*	1
907	640	1.11e-18/482aa/15.29%	1
1529	696	*	1
4037	697	*	1
1188	698	*	1
1327	699	*	1
3746	700	*	1
4345	391	4.71e-24/625aa/22.51%	1
1477	701	*	1
1895	702	*	1
2151	703	*	1
2058	488	5.19e-74/656aa/29.64%	1
1304	4	3.84e-21/197aa/10.15%	1
1755	669	2.42e-114/541aa/31.69%	1
493	217	3.54e-33/267aa/13.55%	1
1656	421	1.92e-18/319aa/12.78%	1
1743	704	*	1
2107	705	*	1
2576	706	*	1
2754	707	*	1
3087	708	*	1
4447	709	*	1
4531	710	*	1
361	711	*	1
2477	712	*	1
3099	713	*	1
3551	436	3.60e-36/212aa/13.19%	1
4017	454	1.33e-44/651aa/26.39%	1
93	714	*	1
1289	715	*	1
4234	716	*	1
1166	717	*	1
1875	96	1.02e-22/393aa/17.13%	1
2679	488	5.48e-73/660aa/29.59%	1
4649	570	5.01e-152/631aa/37.38%	1
1298	488	1.59e-72/660aa/29.32%	1
1714	488	5.54e-73/660aa/29.32%	1
2346	488	1.59e-72/660aa/29.32%	1
2347	488	1.59e-72/660aa/29.32%	1
462	488	1.04e-77/659aa/30.31%	1
1115	245	6.04e-48/278aa/16.43%	1
3392	663	9.61e-36/306aa/16.74%	1
1233	718	*	1
3704	488	3.85e-53/508aa/22.88%	1
1879	719	*	1
1959	720	*	1
3907	351	5.50e-15/538aa/20.56%	1
4609	721	*	1
340	78	2.20e-31/350aa/15.4%	1
3333	722	*	1
1384	723	*	1
1822	724	*	1
2245	488	1.37e-72/655aa/29.92%	1
2655	64	2.14e-23/260aa/11.65%	1
3116	351	9.67e-09/174:187aa/15.43%	1
317	725	*	1
636	346	2.06e-56/300aa/17.03%	1
1823	726	*	1
1311	727	*	1
87	728	*	1
1470	729	*	1
1137	138	7.59e-09/309aa/11.42%	1
1784	730	*	1
2677	731	*	1
2909	732	*	1
3629	93	9.67e-26/591aa/22.38%	1
2420	733	*	1
3554	292	8.84e-26/221:88aa/17.96%	1
3807	734	*	1
1641	227	1.65e-32/241aa/14.01%	1
1914	735	*	1
1173	736	*	1
1463	737	*	1
121	669	3.05e-120/551aa/34.34%	1
282	217	4.63e-33/284aa/14.05%	1
1294	227	1.03e-43/355aa/19.8%	1
1337	738	*	1
2029	739	*	1
1254	740	*	1
1425	741	*	1
1504	742	*	1
1677	743	*	1
3874	744	*	1
3708	510	6.64e-119/675aa/39.9%	1
52	745	*	1
975	105	3.22e-129/576aa/39.64%	1
4522	746	*	1
424	489	4.40e-37/366:160aa/24.27%	1
1867	747	*	1
2104	748	*	1
1151	749	*	1
1232	750	*	1
1415	748	3.97e-162/549aa/48.79%	1
728	138	5.55e-08/320aa/11.29%	1
1482	751	*	1
3149	752	*	1
3286	753	*	1
679	223	1.02e-35/323aa/18.09%	1
736	754	*	1
2263	755	*	1
2317	292	5.59e-26/220:79aa/15.18%	1
2652	756	*	1
3195	757	*	1
91	758	*	1
2483	759	*	1
816	760	*	1
403	761	*	1
3203	488	4.74e-43/503aa/21.42%	1
3979	694	3.58e-47/569aa/27.59%	1
558	217	6.46e-33/239aa/13%	1
681	762	*	1
1622	730	0.0/592aa/49.1%	1
3173	763	*	1
3336	764	*	1
4197	765	*	1
1491	766	*	1
1903	767	*	1
2404	768	*	1
2610	767	0.0/614aa/91.85%	1
3601	532	5.22e-12/704aa/27.19%	1
3894	769	*	1
4498	366	1.15e-13/251aa/11.88%	1
1108	770	*	1
1819	771	*	1
2025	407	1.38e-45/138:65aa/19.08%	1
2441	761	1.22e-148/618aa/41.1%	1
2886	772	*	1
105	564	5.36e-140/355:102aa/38.07%	1
532	6	3.34e-57/429aa/22.38%	1
918	773	*	1
1102	774	*	1
1918	775	*	1
100	738	1.12e-120/331aa/28.68%	1
894	776	*	1
1544	777	*	1
1933	778	*	1
2264	19	2.10e-35/287aa/13.6%	1
2633	779	*	1
4045	780	*	1
4562	781	*	1
1426	116	1.64e-40/150aa/11.98%	1
2133	607	1.60e-16/274aa/11.65%	1
2982	782	*	1
4442	100	1.26e-108/626aa/34.31%	1
1724	783	*	1
1989	784	*	1
2135	785	*	1
2698	786	*	1
2978	787	*	1
3084	660	1.12e-71/490aa/31.9%	1
2645	788	*	1
4259	789	*	1
579	790	*	1
1025	791	*	1
1675	792	*	1
1882	217	7.19e-49/309aa/16.5%	1
2125	793	*	1
2306	794	*	1
981	795	*	1
1524	796	*	1
140	797	*	1
1295	798	*	1
2075	799	*	1
3186	800	*	1
4217	801	*	1
138	802	*	1
2869	692	7.67e-56/437aa/21.22%	1
3706	694	2.57e-33/475aa/23.54%	1
992	803	*	1
1705	804	*	1
4168	682	1.90e-127/596aa/38.2%	1
79	805	*	1
874	806	*	1
925	807	*	1
1475	669	1.13e-103/393aa/29.61%	1
2070	808	*	1
1493	809	*	1
1541	810	*	1
1589	811	*	1
2028	812	*	1
2033	813	*	1
3847	131	2.45e-38/526aa/26.87%	1
3934	789	2.24e-31/506aa/24.54%	1
174	227	3.57e-49/356aa/20.56%	1
399	814	*	1
963	815	*	1
4485	816	*	1
550	217	2.51e-50/310aa/17.75%	1
666	817	*	1
2536	818	*	1
2589	819	*	1
511	820	*	1
1211	821	*	1
2145	822	*	1
2345	823	*	1
2800	824	*	1
3824	825	*	1
1123	826	*	1
832	436	7.18e-15/197aa/10.1%	1
2032	827	*	1
3437	828	*	1
1330	829	*	1
1583	830	*	1
3328	663	3.20e-61/328aa/23.31%	1
1962	669	1.92e-95/555aa/33.16%	1
80	831	*	1
379	832	*	1
422	833	*	1
445	834	*	1
1575	835	*	1
2322	836	*	1
2539	837	*	1
3765	838	*	1
490	669	5.56e-110/385aa/29.71%	1
835	748	1.88e-32/423aa/19.18%	1
2203	839	*	1
2688	840	*	1
346	841	*	1
2445	842	*	1
3865	682	0.0/528aa/49.48%	1
4294	843	*	1
4435	844	*	1
39	138	3.25e-154/521aa/43.95%	1
1692	845	*	1
519	846	*	1
1206	847	*	1
4530	848	*	1
1101	849	*	1
2321	850	*	1
3145	851	*	1
541	143	9.87e-12/257aa/13.52%	1
2599	19	4.41e-31/287aa/14.21%	1
795	728	3.01e-24/387aa/16.29%	1
1035	852	*	1
1277	853	*	1
1546	217	8.95e-76/297aa/21.78%	1
46	854	*	1
1279	855	*	1
1421	856	*	1
3434	144	2.83e-84/489aa/29.2%	1
147	489	1.91e-25/361aa/15.66%	1
1200	857	*	1
2859	248	2.80e-36/356aa/17.21%	1
3519	858	*	1
1886	859	*	1
3374	860	*	1
538	861	*	1
695	861	1.60e-17/95:131aa/12.43%	1
727	862	*	1
2063	863	*	1
4251	864	*	1
845	865	*	1
1028	866	*	1
1291	867	*	1
1578	537	1.94e-92/143aa/23.01%	1
1769	64	1.22e-24/305aa/15.05%	1
3896	351	9.80e-67/286aa/20.41%	1
2394	868	*	1
2884	673	4.39e-112/600aa/39.16%	1
4219	869	*	1
2086	870	*	1
2316	705	0.0/546aa/57.63%	1
2380	871	*	1
2569	217	5.93e-34/239aa/13.02%	1
319	748	1.73e-34/401aa/19.3%	1
821	748	2.63e-30/390aa/18.6%	1
846	489	2.23e-14/375aa/13.56%	1
1884	872	*	1
1899	873	*	1
3749	432	3.25e-83/458aa/31.47%	1
301	874	*	1
1317	875	*	1
2485	839	6.28e-19/199aa/10.45%	1
3913	828	1.57e-100/550aa/32.92%	1
988	876	*	1
2035	705	0.0/550aa/61.08%	1
118	245	1.51e-51/290aa/20.27%	1
3544	877	*	1
111	878	*	1
702	138	6.61e-07/262aa/11.2%	1
2386	693	1.09e-63/420aa/27.32%	1
4349	879	*	1
376	105	8.29e-17/458aa/17.89%	1
454	880	*	1
1342	747	0.0/495aa/67.71%	1
2690	881	*	1
2767	327	1.42e-16/258aa/12.8%	1
2873	882	*	1
4255	883	*	1
2685	884	*	1
3772	825	7.63e-43/563aa/25.48%	1
2290	885	*	1
1614	886	*	1
1936	887	*	1
2918	888	*	1
4642	889	*	1
134	890	*	1
209	876	1.44e-33/574aa/27.2%	1
304	748	4.40e-53/540aa/30.56%	1
1454	891	*	1
1703	892	*	1
3442	816	2.31e-57/588aa/30.56%	1
4333	893	*	1
201	894	*	1
904	895	*	1
1982	896	*	1
2588	897	*	1
3010	828	2.51e-34/474aa/21.63%	1
4284	828	5.08e-88/482aa/30.24%	1
3897	898	*	1
752	610	6.67e-90/265aa/23.75%	1
1063	880	9.00e-149/556aa/43.92%	1
1274	899	*	1
1673	900	*	1
1678	122	4.72e-10/235aa/11.07%	1
3760	901	*	1
4177	204	2.29e-12/365aa/15.53%	1
3804	902	*	1
123	903	*	1
437	904	*	1
1161	905	*	1
2708	906	*	1
4341	752	1.26e-27/519aa/25.26%	1
20	907	*	1
2795	908	*	1
4373	909	*	1
658	910	*	1
1571	911	*	1
1652	912	*	1
2447	839	4.08e-20/537aa/21.94%	1
3235	913	*	1
4203	488	2.45e-35/434aa/20.32%	1
1345	914	*	1
1397	915	*	1
4230	825	1.76e-39/493aa/25.22%	1
4557	351	4.39e-20/502aa/22.88%	1
729	254	1.72e-24/213aa/12.99%	1
3428	916	*	1
3724	487	1.05e-143/552aa/42.23%	1
1145	917	*	1
1353	918	*	1
2971	919	*	1
3413	920	*	1
4400	921	*	1
952	922	*	1
1057	923	*	1
2030	19	5.04e-51/286aa/18.65%	1
2710	767	1.28e-11/256aa/11.59%	1
3581	924	*	1
3918	925	*	1
677	49	4.03e-30/329aa/19.23%	1
1599	880	1.08e-128/543aa/40.65%	1
1701	926	*	1
2501	927	*	1
3313	928	*	1
3883	921	6.25e-159/555aa/58.25%	1
1484	929	*	1
3793	930	*	1
4043	708	7.48e-19/558aa/22.36%	1
204	931	*	1
2253	932	*	1
2924	933	*	1
891	423	1.38e-33/213aa/13.86%	1
1377	934	*	1
1935	887	0.0/545aa/72.26%	1
2514	935	*	1
3595	936	*	1
3915	828	4.22e-79/484aa/28.28%	1
4176	937	*	1
4560	705	2.51e-156/531aa/42.33%	1
2446	938	*	1
2488	939	*	1
3138	940	*	1
3314	941	*	1
3381	942	*	1
3666	943	*	1
1422	944	*	1
3196	945	*	1
3319	946	*	1
4102	921	3.03e-87/321aa/36.81%	1
4517	899	3.70e-24/454aa/23.99%	1
562	947	*	1
3256	737	1.29e-144/528aa/41.83%	1
873	948	*	1
2188	254	4.44e-28/481aa/21.69%	1
2330	949	*	1
2607	908	1.93e-78/536aa/31.61%	1
458	748	8.25e-24/380aa/18.23%	1
601	950	*	1
2558	839	3.28e-15/513aa/20.44%	1
3001	951	*	1
83	952	*	1
281	908	1.31e-79/528aa/31.73%	1
754	747	0.0/500aa/64.57%	1
2138	953	*	1
567	954	*	1
1451	955	*	1
1513	956	*	1
1537	957	*	1
2211	958	*	1
2825	959	*	1
2958	960	*	1
4187	961	*	1
1833	962	*	1
1905	963	*	1
3712	682	1.79e-52/529aa/31.11%	1
1091	964	*	1
1212	965	*	1
1260	966	*	1
1536	967	*	1
2448	968	*	1
30	767	7.28e-28/308aa/16.72%	1
768	767	6.48e-13/255aa/11.89%	1
1174	969	*	1
102	970	*	1
451	965	1.67e-125/509aa/37.98%	1
1432	971	*	1
2144	972	*	1
2741	973	*	1
146	334	1.04e-25/259aa/15.11%	1
1351	974	*	1
1501	975	*	1
1858	976	*	1
1937	969	7.24e-13/449aa/16.04%	1
2752	839	9.95e-108/530aa/33.76%	1
2753	839	1.12e-99/493aa/30.78%	1
4062	147	3.86e-20/531aa/24.25%	1
617	939	1.73e-145/533aa/53.27%	1
4053	943	1.06e-116/512aa/34.01%	1
262	977	*	1
639	138	6.96e-15/278aa/12.73%	1
3294	978	*	1
2662	979	*	1
3151	921	6.71e-99/486aa/43.52%	1
36	562	1.47e-81/420aa/26.87%	1
440	980	*	1
2155	981	*	1
3933	663	6.81e-31/237aa/16.72%	1
353	982	*	1
516	736	1.65e-101/433aa/35.59%	1
668	983	*	1
685	984	*	1
828	141	8.56e-42/480aa/26.93%	1
1401	985	*	1
1452	986	*	1
1780	873	4.15e-46/273aa/19.43%	1
2288	987	*	1
3902	988	*	1
4149	989	*	1
4226	351	5.94e-15/494aa/21.5%	1
675	990	*	1
890	990	0.0/529aa/99.05%	1
2530	948	6.25e-56/491aa/26.08%	1
2618	969	5.88e-42/429aa/22.3%	1
3931	351	2.57e-26/532aa/27.59%	1
4192	789	9.15e-15/215aa/12.47%	1
208	217	5.18e-55/296aa/19.5%	1
886	991	*	1
1446	992	*	1
1851	870	7.54e-07/264aa/11.02%	1
2373	839	1.36e-23/477aa/22.05%	1
320	993	*	1
1055	994	*	1
1523	995	*	1
1688	996	*	1
4576	533	1.90e-90/577aa/38.66%	1
3	997	*	1
1894	998	*	1
2663	999	*	1
2848	839	9.97e-94/506aa/30.91%	1
3030	943	1.77e-20/496aa/23.66%	1
232	1000	*	1
276	141	7.06e-34/427aa/22.75%	1
1659	1001	*	1
3065	1002	*	1
4657	1003	*	1
2185	983	2.24e-95/509aa/37.16%	1
114	1004	*	1
193	1005	*	1
1624	1006	*	1
1839	1007	*	1
1282	141	5.54e-22/401aa/20.76%	1
2037	537	3.68e-16/160aa/11.15%	1
2254	969	5.08e-47/433aa/22.88%	1
2684	839	2.79e-20/420aa/16.73%	1
483	1008	*	1
2583	969	2.44e-48/471aa/25.04%	1
642	969	8.19e-34/469aa/24.51%	1
2760	1009	*	1
3928	531	2.91e-27/244aa/13.51%	1
4547	1010	*	1
808	1011	*	1
1143	1012	*	1
1602	1013	*	1
2204	19	1.46e-54/272aa/20.3%	1
231	1000	0.0/517aa/65.69%	1
936	1005	0.0/484aa/56%	1
1485	1014	*	1
2156	969	3.56e-40/478aa/21.51%	1
2163	822	0.0/487aa/72.48%	1
3060	1015	*	1
3971	943	1.40e-28/467aa/20.73%	1
641	969	1.34e-32/512aa/24.07%	1
650	1016	*	1
926	1017	*	1
1268	1018	*	1
1670	1019	*	1
3015	1020	*	1
4634	1021	*	1
215	983	6.20e-95/523aa/35.21%	1
1783	346	1.66e-35/374aa/19.45%	1
1818	1022	*	1
3954	1023	*	1
4151	1024	*	1
4356	1025	*	1
1639	1026	*	1
2686	839	1.55e-24/405aa/17.73%	1
2836	1013	5.99e-35/384aa/21.05%	1
3648	663	1.22e-44/323aa/23%	1
3969	767	1.60e-15/259aa/14.03%	1
4415	1027	*	1
495	904	3.82e-175/473aa/47.65%	1
1873	217	9.06e-23/263aa/15.42%	1
2217	1028	*	1
3063	1029	*	1
3176	1024	0.0/506aa/77.92%	1
4212	1030	*	1
4611	1031	*	1
1223	1032	*	1
1488	1033	*	1
2235	1013	0.0/523aa/81.21%	1
73	1034	*	1
638	969	2.19e-25/484aa/21.96%	1
1358	1035	*	1
1497	420	2.12e-26/399aa/18.62%	1
1944	1036	*	1
2060	420	0.0/476aa/48.82%	1
2116	839	1.74e-22/477aa/20.39%	1
2704	839	3.18e-10/535aa/23.52%	1
2719	1037	*	1
4106	1038	*	1
4662	351	7.08e-28/506aa/22.94%	1
2164	1039	*	1
2765	1040	*	1
861	1041	*	1
2051	457	7.31e-23/82:189aa/17.32%	1
2071	1042	*	1
2168	1043	*	1
2172	1044	*	1
2352	969	3.07e-44/483aa/24.8%	1
4443	1045	*	1
368	1046	*	1
491	1047	*	1
512	1048	*	1
542	698	2.19e-21/107:93aa/15.18%	1
602	19	1.07e-51/272aa/20.11%	1
834	732	3.14e-25/293aa/16.37%	1
191	190	2.62e-13/298aa/13.43%	1
843	1037	1.66e-58/112aa/16.79%	1
1976	1049	*	1
1998	522	4.23e-111/494aa/39.52%	1
2087	969	9.38e-170/484aa/47.43%	1
2422	1050	*	1
3033	921	2.35e-36/268aa/24.3%	1
3447	1051	*	1
1100	767	8.11e-29/310aa/18.41%	1
2297	969	1.79e-32/450aa/20.19%	1
3143	838	1.92e-21/304:147aa/24.55%	1
3916	1052	*	1
4614	838	3.38e-20/303:148aa/23.96%	1
803	1053	*	1
966	792	3.85e-78/214aa/25.19%	1
1144	1054	*	1
2401	1055	*	1
3790	351	6.01e-17/515aa/24.6%	1
4128	663	4.08e-67/235aa/25.59%	1
452	502	1.21e-24/301aa/16.3%	1
552	1056	*	1
2038	839	3.52e-13/289aa/13.32%	1
2167	1057	*	1
2240	969	4.79e-39/462aa/22.06%	1
2726	1058	*	1
2801	1040	4.66e-87/474aa/31.8%	1
3150	1059	*	1
405	988	2.43e-10/274aa/14.14%	1
1395	537	4.95e-30/153aa/11.95%	1
2210	969	6.45e-88/491aa/32.27%	1
2660	969	8.35e-42/468aa/21.71%	1
3811	988	1.05e-19/501aa/26.69%	1
4655	1060	*	1
240	1061	*	1
407	861	4.41e-28/449aa/21.35%	1
2209	969	3.65e-82/490aa/31.33%	1
2259	222	9.96e-18/209aa/12.77%	1
2581	984	9.87e-47/434aa/25.34%	1
2584	969	2.07e-35/420aa/20.95%	1
4375	1062	*	1
1530	1063	*	1
1598	1064	*	1
2392	4	6.48e-13/227aa/12.8%	1
3950	1065	*	1
4460	816	1.38e-11/218aa/12%	1
949	1066	*	1
2277	969	5.20e-45/454aa/24.64%	1
2332	1067	*	1
3890	141	6.86e-35/468aa/27.25%	1
1757	1068	*	1
3510	1069	*	1
477	1070	*	1
2843	1071	*	1
4360	766	1.36e-26/290aa/16.49%	1
4604	1072	*	1
427	747	3.21e-55/334aa/22.58%	1
2017	758	7.04e-80/470aa/34.87%	1
4139	1073	*	1
167	1074	*	1
417	1075	*	1
1072	57	4.05e-35/238aa/16.56%	1
2762	1076	*	1
2771	1077	*	1
2841	839	2.52e-24/176aa/12.32%	1
3506	1078	*	1
3630	1079	*	1
3820	1080	*	1
4078	1081	*	1
4434	141	1.92e-38/416aa/25.25%	1
1088	1082	*	1
1565	1083	*	1
1719	1084	*	1
2357	1053	2.25e-107/508aa/43.52%	1
2844	1085	*	1
631	839	3.60e-18/477aa/22.51%	1
1517	1086	*	1
2127	1087	*	1
2362	969	1.72e-56/472aa/27.38%	1
2989	539	1.53e-17/201aa/13.38%	1
3027	1088	*	1
243	1089	*	1
390	728	2.75e-71/432aa/28.65%	1
485	138	1.63e-15/238aa/11.58%	1
922	1090	*	1
1009	1091	*	1
1315	1092	*	1
1681	1093	*	1
2701	1006	0.0/447aa/71.74%	1
2852	1013	1.96e-17/380aa/17.07%	1
3159	1094	*	1
3197	141	1.87e-43/439aa/28.86%	1
4138	1095	*	1
260	1059	6.66e-31/289aa/19.55%	1
549	1096	*	1
2417	873	9.22e-41/279aa/18.12%	1
3267	1097	*	1
4238	999	2.80e-90/471aa/34.82%	1
4396	1098	*	1
778	1099	*	1
1527	1100	*	1
2459	1101	*	1
2772	767	1.52e-19/295aa/14.89%	1
2879	1102	*	1
3327	141	7.77e-37/460aa/26.93%	1
1403	1103	*	1
1966	578	4.05e-14/353aa/16.97%	1
3405	230	1.09e-68/423aa/31.08%	1
3672	539	2.18e-12/332aa/16.15%	1
1556	1104	*	1
2572	1105	*	1
3352	972	1.53e-91/487aa/40.98%	1
38	1106	*	1
1003	894	2.61e-43/139:105aa/29.15%	1
3018	1107	*	1
129	1108	*	1
2636	1109	*	1
2695	1110	*	1
3293	361	3.97e-11/244aa/14.81%	1
3299	1111	*	1
449	758	1.05e-30/157:168aa/26.18%	1
3957	1112	*	1
1216	26	4.74e-79/404aa/32.64%	1
1721	1113	*	1
2642	969	2.68e-15/222aa/13.63%	1
1827	217	2.16e-35/212aa/15.52%	1
2573	835	2.34e-21/182aa/11.8%	1
3077	1114	*	1
3148	1115	*	1
4519	1116	*	1
222	1117	*	1
182	1118	*	1
238	1119	*	1
241	1120	*	1
1231	1121	*	1
1356	1122	*	1
3515	1123	*	1
3287	361	1.81e-09/245aa/13.12%	1
3384	979	9.68e-80/494aa/37.7%	1
89	1124	*	1
337	1125	*	1
1837	1126	*	1
2023	797	3.02e-24/198aa/12.94%	1
2333	1127	*	1
2865	1128	*	1
2896	1129	*	1
3201	141	1.51e-39/461aa/27.76%	1
4114	1130	*	1
646	1131	*	1
935	1132	*	1